ITEM: TIMESTEP
300000
ITEM: NUMBER OF ATOMS
13500
ITEM: BOX BOUNDS pp pp pp
9.6036283872634698e-01 5.9039637161274257e+01
9.6036283872634698e-01 5.9039637161274257e+01
9.6036283872634698e-01 5.9039637161274257e+01
ITEM: ATOMS id type xs ys zs
2996 1 0.0533873 0.0704834 0.0585452
2529 1 0.0462282 0.00854778 0.0423882
536 2 0.022953 0.0444815 0.044345
1010 1 0.0194617 0.018365 0.0805119
7228 2 0.080625 0.0698581 0.0189957
3323 1 0.0744203 0.0375414 0.043333
74 2 0.0638519 0.0254354 0.0823193
5777 1 0.497505 0.462079 0.44291
4480 2 0.0944718 0.0654956 0.0743889
10045 2 0.126766 0.0580826 0.0351281
332 2 0.0959052 0.0150698 0.0139458
343 2 0.150236 0.0135267 0.0420104
3203 1 0.143934 0.045617 0.0732885
6792 2 0.107509 0.0176582 0.0689204
2787 2 0.157988 0.0756249 0.00103034
9711 1 0.167426 0.0337829 0.00674829
577 2 0.175077 0.0584112 0.0427187
3152 1 0.21428 0.0577838 0.0621782
3512 1 0.191284 0.0258218 0.0703577
2378 1 0.206153 0.0271105 0.03014
236 2 0.247997 0.0274014 0.0454249
1211 2 0.226764 0.0775409 0.0271039
906 1 0.13254 -0.0017699 0.408851
346 1 0.202772 0.0583973 0.0019851
7434 1 0.265169 0.0609095 0.0221228
82 1 0.293235 0.0377913 0.0605122
783 2 0.260912 0.0686151 0.0709045
105 1 0.289161 0.0233301 0.0235948
10269 1 0.319104 0.00744798 0.047257
4302 2 0.305808 0.0668346 0.0341267
10411 1 0.3295 0.0373241 0.0100591
4570 1 0.500059 0.204311 0.401161
5780 2 0.338929 0.0421036 0.0568366
4185 1 0.352749 0.0697419 0.0234733
12791 2 0.380773 0.0398448 0.0316917
5244 1 0.377716 0.0665553 0.0669359
476 1 0.416082 0.0622617 0.0419428
3082 1 0.41605 0.0385938 0.00467126
4379 1 0.356394 0.00443598 0.0329968
12962 1 0.394817 0.00401967 0.0145481
3329 1 0.397125 0.0809836 0.0061578
13208 1 0.366264 0.0265528 0.0841801
5059 2 0.499796 0.0668642 0.393361
370 2 0.428603 0.0119656 0.0438722
3748 1 0.461198 0.0248024 0.0652799
2978 2 0.451126 0.0675684 0.064089
3201 1 0.455153 0.037408 0.0235917
20 2 0.444793 0.075293 0.0116332
3704 2 0.480019 0.00363977 0.0225743
698 2 0.496044 0.0516795 0.0437357
68 2 0.0360758 0.0860801 0.0133555
10020 2 0.0140438 0.0955505 0.0614573
7575 2 0.0601016 0.114937 0.0491493
357 2 0.0142579 0.150089 0.0567002
934 1 0.0238896 0.127571 0.0231632
2254 1 0.0556362 0.160173 0.0469822
7973 2 0.0569228 0.154165 0.00474362
7894 2 0.0862746 0.155924 0.0777542
2986 2 0.135798 0.0867983 0.0797098
3286 2 0.104472 0.101405 0.0406649
1889 1 0.148461 0.0982495 0.0380181
1062 1 0.131115 0.132728 0.0579224
296 2 0.100725 0.153908 0.0307339
916 2 0.152798 0.168262 0.0363191
5608 1 0.092251 0.113638 0.0839815
3550 2 0.138906 0.127914 0.00596152
2810 1 0.18786 0.0999137 0.0183467
279 1 0.173807 0.132427 0.0437368
3799 2 0.188738 0.0971503 0.0658946
7474 1 0.23142 0.103511 0.0646001
3070 2 0.220294 0.129527 0.0288564
291 2 0.208511 0.147814 0.0721512
4173 1 0.263065 0.104665 0.0374766
3502 2 0.304271 0.137814 0.0316864
275 2 0.293848 0.112873 0.0694523
1021 2 0.257393 0.140891 0.0615934
43 1 0.299243 0.159741 0.0694756
2749 2 0.259555 0.148793 0.00835821
6260 1 0.329492 0.10329 0.0259397
4044 2 0.283725 0.0979769 0.0037145
1012 2 0.340925 0.139411 0.0682481
11221 2 0.337845 0.0901993 0.0657429
2937 2 0.378114 0.101701 0.0395766
11199 1 0.396994 0.149722 0.0284776
3281 2 0.353943 0.141484 0.0186063
7238 2 0.394379 0.134417 0.0705307
3246 1 0.410515 0.0911076 0.0744936
9714 2 0.462626 0.139457 0.0364472
8163 1 0.475199 0.097384 0.04333
9687 2 0.423666 0.111906 0.0302483
4829 1 0.488785 0.132805 0.0773387
3971 2 0.447413 0.117349 0.0796687
13480 1 0.487585 0.15863 0.00567124
314 1 0.460036 0.164759 0.0714987
13191 2 0.492057 0.0859756 0.0041615
294 1 0.0174966 0.169315 0.0124497
6501 1 0.00266004 0.192304 0.0795587
980 1 0.0300319 0.196352 0.041695
7986 1 0.009865 0.226611 0.0513947
78 2 0.0472628 0.236372 0.0259959
9929 1 0.0491296 0.224497 0.0687783
7652 2 0.0775975 0.199177 0.041638
7460 1 0.0777858 0.248619 0.0542746
1801 1 0.169606 0.497166 0.267054
773 1 0.199796 0.497634 0.299198
3520 2 0.12493 0.179685 0.0734207
7259 2 0.123641 0.230272 0.0535629
2315 1 0.121943 0.194683 0.0311278
2982 1 0.0978121 0.234045 0.017778
131 1 0.156507 0.207306 0.0722213
3008 2 0.135356 0.219893 0.00290879
302 1 0.194366 0.171416 0.0351069
1739 1 0.237492 0.173495 0.0388246
506 1 0.171719 0.169769 0.0750157
340 1 0.211877 0.202664 0.0197226
398 2 0.17249 0.215018 0.0341778
10979 1 0.211328 0.239445 0.0419515
179 2 0.209742 0.197899 0.0638739
2970 2 0.183835 0.243104 0.0788521
9985 1 0.188843 0.237018 0.00169277
359 2 0.2363 0.234581 0.00395461
955 2 0.252608 0.215834 0.0458758
11004 1 0.322573 0.174326 0.0140658
5814 2 0.287503 0.184747 0.0359117
1187 1 0.30627 0.198169 0.0789961
9511 1 0.327278 0.217524 0.0227694
667 2 0.294614 0.23799 0.0416675
12573 1 0.25355 0.195387 0.00419672
469 1 0.333377 0.179601 0.0541207
853 1 0.37483 0.169252 0.0569637
120 2 0.33595 0.226943 0.0652227
6700 2 0.361826 0.19069 0.0217922
3264 1 0.40548 0.193124 0.023015
9963 2 0.387827 0.214596 0.0597805
5844 2 0.363296 0.242126 0.0192771
9588 2 0.419179 0.238297 0.0224548
6752 2 0.422379 0.169888 0.0586981
42 1 0.493458 0.170628 0.0493374
10993 2 0.453445 0.186786 0.0259061
9838 1 0.466552 0.229298 0.0241006
701 1 0.431671 0.214478 0.0573158
10330 2 0.473208 0.206308 0.0686375
515 2 0.0307986 0.265539 0.0685226
669 1 0.0407508 0.285224 0.0302417
6998 2 0.0613316 0.321727 0.0276766
3303 2 0.013962 0.314226 0.0105462
2764 2 0.0187213 0.311462 0.0615812
3687 2 0.0759408 0.291939 0.0621566
7162 2 0.078662 0.272505 0.0137592
13404 2 0.00285147 0.268556 0.0209807
56 1 0.121625 0.295696 0.0746466
341 1 0.114334 0.272051 0.0411705
1607 1 0.146498 0.262009 0.0753947
523 2 0.11444 0.314472 0.0294565
2613 1 0.148384 0.297605 0.00804357
817 1 0.152769 0.307924 0.0509822
1147 2 0.164008 0.26519 0.0330459
3444 1 0.310744 0.500946 0.193553
9888 1 0.206973 0.277155 0.0585512
6652 2 0.189603 0.313482 0.0345415
206 2 0.216651 0.276717 0.0171054
3504 1 0.234913 0.315481 0.0363483
10523 1 0.211589 0.322692 0.075244
5021 1 0.270587 0.256732 0.0019693
1026 2 0.252945 0.267907 0.0444196
2969 2 0.284564 0.312047 0.0540203
7686 1 0.322288 0.319388 0.0429893
795 1 0.293756 0.281774 0.0274277
194 2 0.26318 0.303269 0.00507293
7458 2 0.295876 0.271051 0.077188
7941 2 0.317617 0.255555 6.24331e-06
3800 2 0.333195 0.277753 0.0464453
11198 1 0.366507 0.256948 0.0587729
13030 2 0.391948 0.28566 0.0366508
375 1 0.360811 0.30717 0.0614714
10580 2 0.359286 0.321531 0.0178869
10778 1 0.403856 0.307211 0.0713603
6856 2 0.412015 0.259533 0.074146
10171 1 0.349003 0.282933 0.00424825
218 1 0.402635 0.313809 0.00558585
7492 2 0.438099 -0.00453345 0.0964776
10236 2 0.457183 0.255146 0.0568551
6404 2 0.426605 0.324546 0.0390001
431 2 0.490032 0.271172 0.0188733
11021 2 0.43983 0.284317 0.0189859
7022 1 0.470307 0.318413 0.017404
385 2 0.489335 0.298899 0.0585993
231 1 0.444694 0.293219 0.0666205
9527 2 0.0124256 0.368216 0.00836164
7397 1 0.0269333 0.347771 0.0423332
3464 1 0.0160675 0.392752 0.0456478
5798 1 0.0378587 0.409367 0.012257
412 2 0.062131 0.375624 0.0320523
1087 1 0.0435787 0.379633 0.075915
7791 2 0.0538423 0.341996 0.0812019
11866 1 0.446472 0.416273 0.474479
11694 2 0.0861511 0.406739 0.00120759
1057 1 0.0890902 0.343425 0.0511239
1099 1 0.0984503 0.40485 0.0457066
3305 1 0.129689 0.346212 0.06087
3317 1 0.153308 0.341756 0.0231942
6097 2 0.115302 0.368282 0.0276935
3955 2 0.13774 0.394463 0.0687958
2638 1 0.158643 0.381677 0.0342464
2795 2 0.0921549 0.37788 0.0787574
7605 1 0.132249 0.418359 0.0238766
7454 2 0.173863 0.347445 0.0632858
10629 1 0.216947 0.355862 0.0452657
301 2 0.192397 0.392564 0.0597751
6102 1 0.223236 0.396487 0.0245247
2826 1 0.238222 0.393205 0.0649357
594 2 0.192702 0.365412 0.0107607
423 2 0.239432 0.353536 0.00561986
3637 2 0.179294 0.415147 0.0091688
532 1 0.277939 0.342099 0.0204985
6564 1 0.259508 0.377833 0.032633
650 2 0.255141 0.347162 0.0623644
7775 1 0.30152 0.357325 0.0515889
7329 1 0.320929 0.348987 0.0150277
13281 2 0.284811 0.39227 0.062754
2775 1 0.29422 0.383192 0.0144429
9806 1 0.330215 0.388237 0.03528
10092 2 0.330558 0.392984 0.0827796
7356 2 0.345316 0.354239 0.0596055
9948 1 0.362327 0.367463 0.0140784
1589 1 0.385472 0.340031 0.0470718
7011 2 0.376624 0.392508 0.049379
3095 2 0.407275 0.367641 0.0195681
6944 2 0.35856 0.413778 0.006119
9977 1 0.399332 0.404893 0.00520169
7339 1 0.459858 0.331601 0.063504
9367 2 0.498569 0.345088 0.0446712
7306 2 0.499632 0.390874 0.0565976
11233 2 0.416806 0.366186 0.0710702
7185 1 0.42556 0.404532 0.0392545
10158 1 0.45577 0.400231 0.0700267
9669 2 0.452898 0.368447 0.0383545
10060 1 0.446633 0.391604 0.000622942
196 2 0.0587994 0.416933 0.0571701
12390 2 0.0173628 0.435593 0.0476314
6320 1 0.0533527 0.463598 0.0561784
3121 2 0.0603195 0.447541 0.017086
12703 1 0.0672348 0.491591 0.0235431
4076 2 0.0256186 0.487391 0.0133114
5090 2 0.00930891 0.480848 0.0717502
4523 1 0.0162385 0.445897 0.00250949
3609 2 0.138364 0.4933 0.0496868
863 1 0.0919686 0.445405 0.0498456
3947 2 0.0921631 0.489365 0.0584319
3367 2 0.132033 0.443844 0.0682513
1339 1 0.15099 0.458297 0.0292543
3360 2 0.110973 0.457945 0.0139451
5870 1 0.166128 0.425555 0.0486014
6683 1 0.175353 0.463587 0.061638
1321 2 0.213468 0.434443 0.0493033
6335 2 0.19175 0.466736 0.0192485
224 1 0.238473 0.465563 0.0327788
6680 2 0.216285 0.486037 0.0644811
6174 1 0.227586 0.433089 0.00622713
2374 2 0.257715 0.426975 0.0371434
10742 2 0.309173 0.440759 0.0633062
509 2 0.287925 0.47462 0.0321704
3853 2 0.263814 0.46685 0.0730369
5730 2 0.306976 0.423885 0.0201766
10115 1 0.32678 0.491233 0.0419856
12871 1 0.27158 0.448366 -0.000247892
11042 1 0.310734 0.479504 0.0839346
7333 1 0.349437 0.424682 0.049649
9419 2 0.353575 0.46637 0.0661411
7415 2 0.392964 0.442316 0.0382013
1968 2 0.344402 0.460396 0.0177936
6880 1 0.368923 0.496402 0.0349057
6161 1 0.399973 0.463262 0.0762502
4373 2 0.497781 0.405544 0.325061
7186 2 0.471324 0.419103 0.0273477
6627 2 0.417523 0.487579 0.0224525
12630 2 0.458325 0.496919 0.0510258
10434 2 0.495046 0.489419 0.00491307
11110 1 0.487138 0.463279 0.0393633
9496 1 0.48668 0.43047 0.0706323
4019 1 0.455641 0.469264 0.0116196
3376 2 0.442504 0.448527 0.0570227
10148 2 0.430083 0.435385 0.00398008
5948 1 0.497019 0.446022 0.00197763
10186 1 0.478066 0.471966 0.082232
7663 2 0.0624107 0.00379531 0.157027
4482 1 0.069272 0.0529899 0.118793
7501 1 0.0418549 0.0163925 0.117749
7601 2 0.0363325 0.0477816 0.149752
276 2 0.0304218 0.0602692 0.0973372
1128 1 0.0138112 0.00802258 0.150964
9688 1 0.0867191 0.00934432 0.117808
747 1 0.107828 0.010385 0.155195
13141 1 0.154711 0.0585033 0.117863
3249 2 0.116511 0.0407055 0.113098
4219 2 0.0906372 0.0484951 0.157352
489 2 0.156289 0.025385 0.147366
34 2 0.141904 0.0767342 0.156118
6642 2 0.160457 0.0130395 0.0965005
2391 1 0.178405 0.0629497 0.0878262
1205 1 0.220943 0.0723524 0.102966
3173 1 0.232429 0.0411583 0.13655
11471 2 0.19434 0.0393303 0.118792
10344 2 0.232291 0.026129 0.0924068
12600 1 0.182379 0.0589011 0.153729
13001 2 0.225241 0.0814692 0.157031
6899 2 0.314599 0.0126206 0.0937106
740 2 0.262115 0.0646661 0.122178
3711 2 0.264991 0.0205716 0.156675
13040 1 0.272261 0.0306928 0.0959814
713 2 0.303931 0.0656065 0.0907446
1014 2 0.305118 0.0422067 0.132499
979 2 0.286473 0.0759388 0.163406
3630 1 0.326721 0.0787356 0.137626
3557 2 0.410217 0.0370523 0.0837058
3527 2 0.350888 0.0609063 0.104957
1150 1 0.344976 0.0375871 0.145824
3915 1 0.385785 0.0302974 0.121823
581 2 0.351378 0.00288543 0.120885
7261 2 0.375868 0.0693707 0.149568
695 1 0.394658 0.0688124 0.107489
3778 2 0.388218 0.0229665 0.163552
1372 1 0.418506 0.00746548 0.129964
12979 2 0.490464 0.042461 0.0938561
6718 2 0.424152 0.0561089 0.139245
703 2 0.471788 0.0679298 0.134272
11145 1 0.446729 0.0387931 0.104558
7888 2 0.463932 0.0180767 0.142883
300 1 0.438478 0.0794068 0.105991
5952 2 0.463601 0.463021 0.471395
7548 2 0.00145547 0.174609 0.303633
803 1 0.0501826 0.140404 0.0892984
348 1 0.0189897 0.0863205 0.13373
1961 1 0.0601267 0.0856301 0.145196
10039 2 0.00969807 0.156535 0.10374
10799 1 0.0176271 0.11399 0.0987629
17 2 0.0581004 0.0960062 0.0994043
8130 2 0.0370787 0.125548 0.135273
6348 1 0.0112173 0.158029 0.147285
440 1 0.0812502 0.132024 0.120389
10 2 0.10377 0.087988 0.12329
6389 1 0.146996 0.100035 0.117601
681 1 0.117036 0.119001 0.14669
1025 2 0.121011 0.137035 0.10323
7543 2 0.109064 0.159568 0.151965
1068 2 0.157761 0.134496 0.143869
3023 2 0.163212 0.128875 0.0879242
7693 2 0.185455 0.0919137 0.126541
10337 1 0.186862 0.154994 0.114618
759 1 0.205685 0.116288 0.10085
1460 2 0.215636 0.135671 0.145485
2065 1 0.237404 0.147325 0.103574
4265 2 0.247521 0.105852 0.103277
6391 2 0.260981 0.117403 0.148313
556 1 0.291747 0.0967611 0.116975
10907 2 0.284672 0.141189 0.109802
3579 1 0.307182 0.117539 0.148852
752 2 0.29758 0.163192 0.155867
3207 2 0.332097 0.113159 0.111952
9134 1 0.335201 0.145307 0.139578
11852 2 0.370881 0.152715 0.107912
662 1 0.371351 0.10417 0.0912993
13225 2 0.380653 0.151746 0.153434
4266 2 0.403454 0.107638 0.121013
1203 2 0.351779 0.110263 0.159937
529 2 0.493945 0.0895648 0.0887003
10682 1 0.416547 0.149704 0.101434
845 1 0.436818 0.0997038 0.147768
473 1 0.467653 0.110385 0.118154
3811 2 0.459459 0.15348 0.111553
2160 1 0.427327 0.142046 0.144266
4050 2 0.471419 0.129404 0.15426
7997 1 0.432048 0.490184 0.448604
2814 1 0.00556204 0.231848 0.14099
3226 2 0.0442414 0.184627 0.0831706
8494 2 0.0575105 0.16709 0.131082
3171 2 0.0143656 0.230096 0.0976254
6531 1 0.0110496 0.194281 0.123867
7801 1 0.0516963 0.213336 0.116094
552 2 0.0371266 0.201486 0.158073
6818 2 0.0481253 0.24683 0.145751
584 2 0.084217 0.208593 0.146021
645 2 0.0888029 0.214242 0.0887112
260 1 0.0979229 0.178172 0.113394
585 2 0.138649 0.229158 0.103812
781 2 0.146535 0.177457 0.118345
964 1 0.126743 0.205748 0.142054
840 1 0.099068 0.242265 0.122825
7484 1 0.147272 0.171658 0.164793
307 1 0.165626 0.222402 0.141326
3600 2 0.231517 0.240629 0.0836985
729 1 0.177954 0.20314 0.105296
819 2 0.216566 0.185033 0.107559
6988 1 0.224455 0.200961 0.150569
9610 2 0.204325 0.231317 0.124372
1366 1 0.239129 0.236827 0.154729
7998 2 0.186598 0.183166 0.149278
6509 2 0.261474 0.183706 0.0855109
1489 2 0.252097 0.170462 0.134875
810 1 0.249242 0.214571 0.119057
1097 2 0.321957 0.169426 0.103328
4535 1 0.290118 0.195886 0.119592
3645 2 0.282098 0.231036 0.0927074
6909 2 0.284978 0.236473 0.140654
35 1 0.314037 0.205302 0.154783
5081 2 0.327678 0.223086 0.114789
627 1 0.321714 0.249051 0.157969
1455 1 0.385306 0.194202 0.163094
5061 1 0.398553 0.183361 0.0894467
1547 1 0.348925 0.188298 0.132597
7445 1 0.356848 0.195223 0.0886274
776 1 0.371366 0.237307 0.0934646
788 2 0.381995 0.213766 0.125333
7719 2 0.417466 0.181549 0.132664
1290 1 0.394738 0.237757 0.158498
75 1 0.414504 0.223073 0.0967788
30 1 0.441021 0.191247 0.0940712
112 2 0.439024 0.22764 0.134731
3389 1 0.454737 0.234037 0.0921127
9964 2 0.45696 0.175635 0.161923
4233 2 0.475355 0.19959 0.121578
7980 1 0.484043 0.242864 0.12693
3722 1 0.496154 0.173258 0.0934891
804 2 0.00373155 0.270587 0.159173
646 2 0.0427202 0.300572 0.103084
193 2 0.0642254 0.254457 0.101734
877 1 0.0221428 0.268847 0.119639
706 1 0.0510569 0.293942 0.146304
633 1 0.00930343 0.307517 0.136647
618 1 0.0689077 0.328698 0.119322
4337 1 0.0124781 0.333244 0.101759
3260 1 0.105528 0.257225 0.083108
1042 2 0.123915 0.250701 0.154009
403 1 0.0860329 0.268283 0.148848
620 1 0.089286 0.290547 0.108014
653 2 0.0962944 0.309278 0.145644
1785 2 0.130198 0.28302 0.114673
3250 1 0.137601 0.291392 0.159659
101 1 0.144246 0.326588 0.093267
614 2 0.102245 0.329084 0.0905969
6384 2 0.244288 0.295466 0.0801237
3343 1 0.170195 0.25975 0.115813
1013 2 0.173427 0.29667 0.0869769
3315 1 0.175063 0.302336 0.133595
10026 1 0.209664 0.273643 0.0997682
1260 2 0.219906 0.309356 0.125134
2893 1 0.208919 0.269575 0.141027
6813 1 0.245771 0.28147 0.160114
3887 1 0.181934 0.337638 0.106778
926 2 0.325268 0.313954 0.0867129
9938 2 0.253684 0.267565 0.121274
1098 1 0.28472 0.304925 0.0983398
637 1 0.309799 0.328696 0.129728
2155 2 0.308633 0.280299 0.123294
1660 2 0.267948 0.315783 0.135773
7358 1 0.28837 0.279876 0.162156
116 1 0.333435 0.259301 0.0906438
8028 1 0.400389 0.25516 0.121318
986 2 0.355627 0.256834 0.134692
1047 2 0.372749 0.281878 0.0934536
4562 1 0.409623 0.295043 0.111332
13 2 0.349919 0.31189 0.128603
4338 1 0.383567 0.284752 0.149374
4034 2 0.399439 0.323662 0.142608
924 2 0.378192 0.332171 0.0947044
83 2 0.494699 0.261197 0.0884007
9483 2 0.425264 0.274923 0.154306
1019 1 0.46728 0.275355 0.14772
762 1 0.445148 0.307963 0.132803
7837 2 0.446454 0.270929 0.107588
374 1 0.471814 0.306954 0.0976699
10673 1 0.470992 0.31373 0.162203
1410 2 0.498965 0.291699 0.128351
1237 2 0.434036 0.330435 0.0975131
799 2 0.0406724 0.338281 0.145362
2544 1 0.0683062 0.369328 0.114228
3225 2 0.0231167 0.373687 0.118821
3455 1 0.00586701 0.406216 0.0891963
1467 2 0.0552003 0.392264 0.153791
808 2 0.0531004 0.410906 0.103029
11487 1 0.012652 0.389515 0.164881
2988 2 0.14097 0.33277 0.133144
617 2 0.0865614 0.357643 0.161709
409 1 0.104904 0.354187 0.124946
480 1 0.132033 0.366542 0.0992224
9801 1 0.13461 0.381403 0.13778
1234 2 0.0987865 0.399687 0.126342
3353 1 0.137582 0.415004 0.110151
13071 1 0.168997 0.375963 0.156824
367 2 0.170321 0.380892 0.107785
460 2 0.194366 0.341494 0.148269
7620 2 0.217515 0.363187 0.0960761
103 1 0.206061 0.38534 0.138254
2157 1 0.211133 0.403605 0.0988869
6871 1 0.23754 0.350311 0.139589
11101 1 0.174788 0.414026 0.134613
10062 2 0.245617 0.394598 0.13324
9571 1 0.248066 0.334408 0.101504
6811 1 0.260065 0.375679 0.0986284
10600 2 0.295207 0.352648 0.094253
10517 1 0.277274 0.358538 0.135157
13295 1 0.286316 0.39996 0.155839
894 2 0.319796 0.368824 0.143374
334 2 0.294319 0.40639 0.111687
10132 2 0.41624 0.418026 0.0823378
6850 1 0.339039 0.353945 0.105875
39 1 0.366977 0.356391 0.141112
1428 2 0.37167 0.381913 0.103936
10141 1 0.368098 0.394605 0.154271
794 1 0.339047 0.402184 0.124106
311 1 0.405671 0.358675 0.114288
7353 1 0.39744 0.409957 0.122987
569 2 0.410502 0.379588 0.151974
7773 1 0.468389 0.362856 0.0836358
6751 2 0.477736 0.344058 0.124512
6830 1 0.440478 0.347925 0.146531
7279 1 0.461144 0.385359 0.150914
7007 2 0.438791 0.384164 0.110626
13324 2 0.484159 0.401208 0.109939
887 1 0.0265102 0.417437 0.134957
3148 1 0.0119222 0.491972 0.118034
7377 1 0.0273214 0.445545 0.0913226
3843 2 0.0349713 0.459086 0.138133
4100 2 0.0538401 0.485967 0.0972206
5873 1 0.0679405 0.43184 0.135785
156 2 0.0756678 0.448721 0.0939622
7602 1 0.0816277 0.473512 0.136735
1509 2 0.00343043 0.436688 0.168927
3356 1 0.103184 0.418294 0.0867638
3089 1 0.109709 0.474382 0.0958364
671 1 0.149081 0.48256 0.0894118
187 2 0.138401 0.422872 0.159036
2165 2 0.151839 0.456108 0.122496
432 1 0.159608 0.489057 0.154099
2802 1 0.108865 0.441962 0.124345
4511 1 0.121136 0.465605 0.161234
1033 1 0.122874 0.491251 0.130582
13126 2 0.0900481 0.434156 0.168964
435 2 0.204553 0.490204 0.144475
7404 1 0.214975 0.447883 0.0900283
5678 2 0.175051 0.431588 0.091377
2892 2 0.21291 0.434273 0.13187
11234 2 0.23691 0.472418 0.11369
1121 1 0.190163 0.474948 0.107416
13339 1 0.17707 0.45139 0.158502
1549 1 0.248051 0.480601 0.157965
10379 2 0.28183 0.493428 0.119311
897 2 0.251916 0.425446 0.0919358
13357 2 0.265413 0.44054 0.142877
10143 2 0.327646 0.477012 0.123288
7385 1 0.290489 0.451937 0.106539
13070 1 0.312924 0.439967 0.139541
623 2 0.291468 0.475382 0.162494
10631 1 0.332276 0.436048 0.100789
13308 2 0.371452 0.427616 0.0902689
13329 2 0.360664 0.435714 0.139377
7272 1 0.369234 0.470617 0.109274
9897 2 0.40848 0.452055 0.120475
3654 2 0.389651 0.475784 0.157271
599 1 0.402433 0.427224 0.161267
6085 1 0.356383 0.499991 0.140852
11237 2 -0.00157174 0.225883 0.226923
7262 1 0.437241 0.416595 0.139531
825 2 0.454005 0.439981 0.1047
4288 2 0.478676 0.429336 0.149225
13322 1 0.472582 0.472985 0.129307
13163 2 0.435393 0.486769 0.0971277
8066 2 0.440507 0.456395 0.162559
1964 2 0.473104 0.487673 0.421604
7311 2 0.0124325 0.0746585 0.181264
7674 2 0.0185246 0.017418 0.19285
1126 2 0.0570917 0.0226103 0.225225
9917 1 0.0567196 0.0398693 0.186562
11438 1 0.0354374 0.0608595 0.222098
6980 2 0.0095497 0.0183498 0.243755
8850 2 0.0588824 0.0826941 0.193506
4590 1 0.157249 0.018156 0.222018
8117 1 0.0923288 0.0161716 0.194498
9875 2 0.0958131 0.0579918 0.20762
3780 2 0.114777 0.0171195 0.235583
2099 2 0.130468 0.0300041 0.187029
3470 1 0.138404 0.0523746 0.23406
1874 1 0.0889941 0.0485561 0.249604
7902 2 0.208676 0.0314762 0.170357
1449 2 0.169534 0.0509786 0.193887
519 1 0.247728 0.0527525 0.180027
814 2 0.235524 0.0272444 0.219741
8119 2 0.184869 0.0495068 0.24037
1191 2 0.216021 0.0740048 0.206461
145 2 0.497802 0.0994779 0.182367
902 1 0.25425 0.0663898 0.22671
1597 1 0.30544 0.0228894 0.172993
6732 1 0.275212 0.0104054 0.237461
3571 2 0.28084 0.042582 0.202547
575 2 0.324711 0.0380767 0.230122
11 1 0.406346 0.00492298 0.200359
4253 2 0.335862 0.0560499 0.182613
5054 2 0.374551 0.0366469 0.208285
3551 1 0.394915 0.0672905 0.227614
1895 1 0.352517 0.0744277 0.22952
2559 1 0.40595 0.0305131 0.243324
4473 2 0.346153 0.003559 0.176204
2712 1 0.408058 0.0635167 0.183714
707 1 0.372542 0.0883145 0.194825
4938 1 0.434899 0.0002366 0.233033
344 1 0.430615 0.0228705 0.169353
4203 2 0.432027 0.0382901 0.210366
1391 1 0.460046 0.0727627 0.218754
7235 1 0.468159 0.043299 0.177896
4020 1 0.477445 0.0224908 0.216244
5039 1 0.455711 0.039525 0.248305
10261 2 0.449106 0.0791963 0.178958
9546 2 0.48689 0.421314 0.455103
7930 2 0.0769491 0.127416 0.167437
11658 1 0.0347741 0.111928 0.174369
11804 1 0.0554955 0.127289 0.211657
7701 2 0.0193322 0.159034 0.228292
8044 2 0.0175941 0.106546 0.216457
1007 2 0.0640351 0.0907051 0.240369
13406 2 0.0371 0.156463 0.182394
6704 1 0.133238 0.0786781 0.200619
9942 1 0.0998149 0.0877021 0.169634
499 2 0.115072 0.0879109 0.243123
512 1 0.0924192 0.105846 0.207322
694 2 0.102744 0.134824 0.235374
932 2 0.129825 0.120116 0.186091
7155 1 0.0974265 0.149929 0.197358
7348 2 0.154279 0.122119 0.229138
546 2 0.13902 0.16498 0.207609
4281 1 0.139824 0.16107 0.251158
7214 1 0.169498 0.0847266 0.221238
2511 2 0.180104 0.0973037 0.18091
679 2 0.231208 0.124757 0.191597
4368 1 0.196841 0.122848 0.220463
5134 2 0.180079 0.141907 0.185684
10551 1 0.228377 0.155795 0.227266
3090 1 0.234381 0.10536 0.226917
3045 1 0.25981 0.153427 0.175623
7164 2 0.297152 0.0859395 0.227663
113 1 0.260477 0.0910358 0.193314
4687 1 0.31603 0.0926765 0.185934
6775 2 0.287095 0.126204 0.192757
3352 1 0.308121 0.133416 0.236191
8453 2 0.267815 0.133864 0.23687
10571 1 0.326057 0.136606 0.183263
1061 1 0.303274 0.163482 0.202128
975 2 0.337643 0.112113 0.213935
11061 1 0.371723 0.136262 0.198409
6420 2 0.402816 0.114421 0.17551
1584 1 0.382971 0.107807 0.228483
878 1 0.416521 0.161159 0.179113
4755 1 0.409082 0.140051 0.217536
9778 2 0.342232 0.163669 0.220277
8360 2 0.372715 0.141834 0.250975
9996 1 0.441243 0.125633 0.184134
9484 2 0.423934 0.0972414 0.215815
10967 2 0.469941 0.124831 0.213995
1233 1 0.486409 0.159419 0.190374
4641 1 0.456132 0.103215 0.248885
1885 1 0.482136 0.168094 0.232465
11193 2 0.442251 0.166736 0.212616
7239 1 0.498956 0.0930059 0.22851
9553 1 0.0755673 0.175302 0.1708
10073 2 0.0670434 0.172022 0.218223
6975 1 0.0591296 0.20703 0.198634
12627 1 0.03672 0.202231 0.235975
1001 1 0.0157891 0.197493 0.200239
4366 1 0.0312616 0.23709 0.183466
5257 2 0.0436251 0.243647 0.222912
2732 2 0.0815716 0.238513 0.180894
135 2 0.0907516 0.22313 0.230747
1598 1 0.105572 0.180068 0.236052
3627 2 0.108949 0.19512 0.189226
1416 2 0.145113 0.2065 0.231551
3384 2 0.152032 0.216427 0.180657
1134 1 0.123169 0.24556 0.200744
2156 1 0.167971 0.249986 0.207182
3129 2 0.186021 0.169668 0.23024
5157 1 0.198917 0.22596 0.171848
6336 2 0.220996 0.176344 0.186497
558 1 0.179289 0.186088 0.192356
958 1 0.23696 0.21853 0.190564
1656 2 0.196314 0.219315 0.217421
416 2 0.236804 0.203793 0.235956
1344 1 0.170231 0.241968 0.247551
1630 2 0.267801 0.200952 0.166062
6724 2 0.265283 0.179474 0.211276
6472 1 0.278119 0.220775 0.220365
373 2 0.309605 0.205705 0.196388
1238 2 0.327259 0.222099 0.243678
756 2 0.30008 0.179006 0.245363
2327 2 0.271589 0.248122 0.185168
974 2 0.320513 0.252802 0.199564
277 2 0.351938 0.219936 0.170331
9337 2 0.344057 0.173797 0.173147
1137 2 0.387358 0.176774 0.205056
4485 1 0.386308 0.222301 0.196526
4205 1 0.351449 0.204293 0.210705
4779 2 0.387447 0.221065 0.242201
7291 1 0.357739 0.24527 0.21975
7299 2 0.409745 0.176038 0.251343
952 2 0.423347 0.207732 0.175322
8201 2 0.469263 0.238102 0.169101
792 1 0.490796 0.19884 0.173499
6816 1 0.422694 0.206648 0.220115
1379 2 0.489594 0.217087 0.245195
7946 2 0.465822 0.207207 0.207318
1856 2 0.437691 0.239518 0.244475
13381 1 0.450145 0.194204 0.248528
1037 2 0.424978 0.249452 0.198246
1966 2 0.0573739 0.27961 0.187397
4060 2 0.0121468 0.27891 0.207175
199 1 0.0482627 0.31428 0.211107
342 1 0.0713573 0.320617 0.178185
3383 1 0.0254871 0.311466 0.175145
8369 2 0.00507963 0.329065 0.212208
3276 2 0.131008 0.25075 0.243474
3632 1 0.0862749 0.262459 0.219651
11067 1 0.10227 0.281123 0.184233
271 2 0.0934281 0.303601 0.218479
7717 2 0.137531 0.285869 0.207457
7726 1 0.114149 0.320295 0.183252
7716 2 0.16319 0.321437 0.179084
7962 2 0.171973 0.265362 0.164226
10450 1 0.2441 0.249287 0.221356
3612 1 0.202319 0.299141 0.169488
1288 2 0.217453 0.262562 0.188506
1526 2 0.205218 0.26624 0.240801
8030 1 0.182204 0.289259 0.207533
3895 2 0.177205 0.320056 0.236581
811 1 0.225281 0.296942 0.211713
11446 2 0.240035 0.320367 0.175981
1566 2 0.229682 0.324181 0.242947
6330 1 0.206298 0.330215 0.199404
1243 1 0.259577 0.282786 0.199369
3636 2 0.285408 0.265298 0.233675
7173 2 0.271097 0.316825 0.222335
6601 2 0.293944 0.324969 0.177006
1900 1 0.303031 0.291774 0.204484
448 1 0.330342 0.327754 0.20426
13128 1 0.326196 0.26649 0.239761
7834 2 0.316286 0.310281 0.243268
152 2 0.331554 0.292115 0.17074
812 2 0.37202 0.26435 0.184523
13445 1 0.349383 0.289485 0.211203
1299 2 0.39255 0.278518 0.23318
4132 2 0.371534 0.318349 0.182847
5057 2 0.370329 0.328755 0.230885
11495 1 0.406755 0.288444 0.189568
10037 1 0.410368 0.320424 0.21798
1077 1 0.470593 0.251036 0.215469
1530 2 0.495917 0.284917 0.189478
8361 1 0.453565 0.279313 0.18537
4946 2 0.440435 0.288948 0.227179
11236 1 0.464563 0.314904 0.203082
10176 1 0.482925 0.287989 0.228336
1070 2 0.428158 0.324537 0.180499
4289 2 0.500454 0.327598 0.217633
8428 2 0.0484187 0.342347 0.24396
1421 2 0.0406327 0.359409 0.191526
768 2 0.0243039 0.40492 0.204611
6876 1 0.0201697 0.372728 0.238595
8072 1 0.0594094 0.387509 0.231234
516 1 0.0735408 0.396379 0.192167
1292 1 0.136081 0.33125 0.218425
10151 1 0.110267 0.395085 0.178766
441 2 0.132678 0.359226 0.175118
6314 2 0.0900031 0.352612 0.211904
228 1 0.131382 0.373217 0.215449
7210 1 0.150626 0.399562 0.19065
4231 2 0.155038 0.403389 0.236513
616 2 0.10196 0.397475 0.227143
142 1 0.164874 0.364 0.247779
912 1 0.120469 0.353863 0.24919
127 2 0.173801 0.361287 0.202616
2671 2 0.218247 0.369478 0.180405
195 1 0.193641 0.396363 0.215545
7949 1 0.204589 0.358601 0.233313
1331 2 0.238823 0.384791 0.225156
760 2 0.190146 0.410824 0.173556
1244 2 0.241693 0.412879 0.177251
4784 1 0.248584 0.348038 0.209384
6625 2 0.327793 0.407586 0.170732
753 1 0.312048 0.364515 0.187489
7009 2 0.266691 0.36573 0.175427
11327 2 0.291946 0.359022 0.225501
7364 2 0.2829 0.404402 0.202352
3097 1 0.320228 0.391365 0.216819
1034 1 0.270264 0.39644 0.251687
881 1 0.338571 0.336844 0.16268
7248 1 0.391615 0.354313 0.17816
3316 2 0.353838 0.367845 0.191041
13074 1 0.393885 0.3952 0.188634
4135 2 0.404057 0.362698 0.215746
4403 1 0.337196 0.356028 0.232559
7203 2 0.359436 0.397723 0.229809
3238 2 0.406437 0.411362 0.2275
6750 2 0.452366 0.346253 0.227652
8572 2 0.488032 0.402617 0.189731
10056 2 0.476252 0.354392 0.179745
7068 1 0.437883 0.366142 0.188309
3891 1 0.488884 0.373634 0.223109
4305 1 0.447471 0.392345 0.221821
989 2 0.437996 0.408452 0.182615
10177 1 0.0171478 0.484496 0.169082
11624 1 0.0303466 0.418154 0.245259
1041 2 0.0671428 0.435368 0.216783
1022 1 0.0464184 0.430204 0.174503
1286 2 0.0578624 0.472172 0.179681
8677 1 0.0622566 0.482357 0.223848
7859 1 0.0277929 0.450809 0.209538
2121 2 0.020209 0.493197 0.213359
1996 1 0.0960991 0.468029 0.197559
3427 2 0.123511 0.435091 0.206417
4805 1 0.12011 0.490355 0.221368
2248 1 0.146788 0.467777 0.191878
4331 2 0.155171 0.461131 0.236861
4968 2 0.0944846 0.461531 0.251479
2220 1 0.169584 0.435827 0.203494
570 1 0.219721 0.454178 0.173548
10886 2 0.187223 0.47825 0.190945
10602 2 0.213902 0.434193 0.212676
3463 2 0.234827 0.476767 0.211717
635 1 0.19477 0.476457 0.234311
1240 1 0.188707 0.431562 0.243679
7637 1 0.299187 0.422613 0.237812
12397 1 0.256068 0.43083 0.226231
631 1 0.268273 0.493375 0.194867
3456 1 0.295987 0.435365 0.176486
13067 1 0.259155 0.448563 0.188603
4151 2 0.293336 0.460075 0.213998
3468 1 0.32843 0.432434 0.209459
391 1 0.25977 0.481387 0.247339
207 2 0.335706 0.464585 0.17283
3723 2 0.339344 0.473659 0.225571
3644 1 0.373024 0.444402 0.230446
7362 2 0.368639 0.429982 0.188695
1184 1 0.378392 0.477394 0.200655
10397 2 0.406424 0.487086 0.230754
1185 2 0.410006 0.449209 0.201191
10181 1 0.417248 0.493381 0.185583
1664 2 0.482171 0.418474 0.234348
7053 2 0.496809 0.464577 0.22046
6885 1 0.466278 0.444346 0.196444
446 1 0.442855 0.437763 0.227188
7165 1 0.475287 0.477488 0.174489
1106 2 0.451921 0.481416 0.214429
7713 2 0.504274 0.0157354 0.171527
11652 2 0.00952775 0.0787041 0.257321
4616 2 0.0104254 0.0358216 0.292726
11921 2 0.0501895 0.0474304 0.267785
8169 1 0.0116172 0.0774242 0.308219
11455 1 0.0524301 0.0141416 0.305393
262 2 0.0498308 0.0619664 0.315613
466 1 0.0353897 0.00233819 0.270583
8214 1 0.0835564 0.0748225 0.281946
7914 1 0.085404 0.036995 0.298205
565 2 0.123948 0.0479268 0.279791
1599 1 0.120734 0.0258307 0.317981
258 2 0.10327 0.0679007 0.324939
7678 2 0.161922 0.00932472 0.307477
789 1 0.158943 0.023206 0.264503
4621 1 0.125957 0.000464079 0.284624