ITEM: TIMESTEP
1200000
ITEM: NUMBER OF ATOMS
13500
ITEM: BOX BOUNDS pp pp pp
9.8352352782389119e-01 5.9016476472168407e+01
9.8352352782389119e-01 5.9016476472168407e+01
9.8352352782389119e-01 5.9016476472168407e+01
ITEM: ATOMS id type xs ys zs
8540 1 0.0208175 0.050429 0.0468333
6300 2 0.0174499 0.0144016 0.00962663
4172 2 0.0556171 0.0323178 0.0692176
10717 2 0.0536912 0.0521426 0.013265
10815 1 0.0702496 0.0712975 0.044844
5903 2 0.015538 0.00974087 0.0616757
9985 1 0.00726256 0.0596287 0.00779199
6096 1 0.0632039 0.0139993 0.027461
477 2 0.100221 0.0358708 0.0451427
2014 2 0.144137 0.025136 0.0158464
167 1 0.13915 0.0451845 0.0550686
4021 1 0.147176 0.0690189 0.0182499
10259 1 0.10373 0.00545528 0.0153226
1215 1 0.1037 0.0497871 -0.000340044
4945 2 -0.000378353 0.19217 0.0259351
716 1 0.170326 0.0138668 0.0598264
10376 2 0.211818 0.0102529 0.0450746
6295 2 0.182648 0.0520704 0.0387142
9345 1 0.225935 0.0621962 0.0475899
302 1 0.22162 0.0396636 0.0135602
2484 1 0.207152 0.0397516 0.0812298
5741 1 0.19356 0.0790375 0.0738619
3051 2 0.0749885 0.498878 0.461439
248 2 0.0426658 0.0851766 0.0746216
12961 1 0.0307665 0.0855324 0.0293567
10930 2 0.0610893 0.116984 0.0300666
3664 1 0.0200084 0.12623 0.0105621
8359 1 0.0379592 0.154866 0.0367477
1891 1 0.017322 0.11758 0.0502733
12320 1 0.0522948 0.132642 0.0707105
6499 1 0.079466 0.159563 0.0182818
11756 1 0.0797486 0.0843412 0.00258111
4235 1 0.085253 0.103677 0.0712321
8825 1 0.153299 0.0831567 0.0593897
10477 2 0.109344 0.0854175 0.0358438
10608 1 0.0960214 0.137222 0.0512972
5261 2 0.143489 0.114594 0.0269204
13472 2 0.129052 0.124764 0.0733239
3199 1 0.100612 0.123144 0.00867312
5575 2 0.123201 0.161421 0.0249852
2844 2 0.15543 0.163132 0.0601947
2105 1 0.168991 0.148149 0.0215317
6081 1 0.169464 0.121512 0.064657
513 2 0.19227 0.101469 0.0334179
1680 1 0.23395 0.121834 0.0246771
12197 2 0.203379 0.148739 0.0494663
2694 2 0.228391 0.102746 0.0635312
10808 1 0.231778 0.164138 0.0180855
12645 1 0.1881 0.494263 0.482304
12728 2 0.0699554 0.172613 0.0635154
6893 2 0.0540881 0.194341 0.0234388
1578 1 0.027496 0.190345 0.0594507
281 1 0.0285265 0.230412 0.0292412
1596 1 0.0686198 0.240318 0.0172463
9881 2 0.00326987 0.231267 0.0630661
3874 1 0.0710289 0.22137 0.0518168
7478 1 0.115639 0.168213 0.0731315
13375 1 0.150958 0.19002 0.0113251
13430 1 0.107116 0.234406 0.0335853
247 1 0.0982472 0.192531 0.042949
2413 2 0.141337 0.21052 0.0490029
6972 1 0.128987 0.250731 0.0702147
3992 2 0.239352 0.00194956 0.391479
1523 2 0.186823 0.201391 0.0666197
4017 2 0.19267 0.186017 0.0205507
10594 1 0.212297 0.234248 0.0543797
6450 1 0.175838 0.226292 0.0264138
3246 1 0.212609 0.224636 0.0120506
5038 1 0.232362 0.198999 0.0413284
2389 1 0.230522 0.180925 0.0755678
9733 1 0.173425 0.244185 0.0651186
1382 2 0.246811 0.247811 0.0339762
1666 2 0.0464561 0.264704 0.0524945
8141 1 0.0217507 0.304706 0.0664133
11674 1 0.0638749 0.311804 0.0537494
11628 1 0.0670945 0.28338 0.018297
12361 2 0.0291903 0.305916 0.0229384
12473 1 0.00333221 0.270473 0.0371904
10701 2 0.0863025 0.322052 0.0130615
12457 2 0.0963542 0.276302 0.0507564
6169 1 0.120375 0.296986 0.01809
2853 2 0.141769 0.262899 0.03113
208 1 0.132773 0.292637 0.0741764
2250 1 0.108253 0.319864 0.0525453
10403 2 0.148207 0.325909 0.0436622
558 1 0.164587 0.297526 0.0124067
763 1 0.244324 0.254797 0.0784291
10559 1 0.169413 0.287257 0.056618
10276 2 0.19817 0.265942 0.02786
10675 1 0.193219 0.31516 0.0416682
10008 1 0.233117 0.295275 0.037684
13382 2 0.207999 0.276794 0.0730472
13471 2 0.226009 0.323343 0.0767508
13216 2 0.208559 0.305945 0.00116924
6213 1 0.0076473 0.343455 0.0627494
10639 2 0.0596368 0.397862 0.0337622
8503 2 0.0250311 0.383398 0.0732672
8428 2 0.0464089 0.350982 0.0405297
1870 2 0.0112862 0.384519 0.0243306
12234 1 0.0837988 0.385898 0.0710716
1291 2 0.0830267 0.34355 0.0817913
7336 1 0.0888491 0.356187 0.0422697
10827 1 0.0413843 0.339972 0.0824397
4973 2 0.125648 0.359646 0.0128047
13443 1 0.107904 0.394733 0.0371362
5393 1 0.125399 0.36338 0.0583479
2372 2 0.144408 0.405761 0.060625
1761 1 0.162471 0.374013 0.0361201
11545 1 0.139826 0.403416 0.0106314
3192 1 0.162016 0.364515 0.0796022
5300 1 0.224823 0.337651 0.0300582
11093 2 0.195957 0.360064 0.0564491
6927 1 0.220437 0.391868 0.0441836
3894 1 0.186551 0.405775 0.0719806
3472 1 0.210241 0.372546 0.0121623
4897 2 0.18249 0.409051 0.0241044
2290 2 0.178049 0.344043 0.00525548
12161 2 0.0250739 0.429148 0.0119517
12578 1 0.0339093 0.427342 0.0528112
7615 2 0.0466975 0.467051 0.0512265
12102 1 0.0249459 0.473895 0.0111523
9743 1 0.0692061 0.44309 0.0254023
5065 2 0.065175 0.48493 0.00573963
4185 1 0.0850561 0.469478 0.0741134
12283 2 0.0957694 0.429566 0.0597438
2218 2 0.102664 0.480702 0.0366097
6459 1 0.126337 0.457095 0.0699594
212 1 0.14887 0.481011 0.0442248
6365 2 0.13116 0.440814 0.026263
6592 1 0.166697 0.441045 0.057347
10400 2 0.242993 0.417998 0.00709812
9775 1 0.176308 0.455737 0.0186862
5759 1 0.224611 0.477537 0.0255598
8679 2 0.21625 0.439069 0.0451308
10431 1 0.192388 0.478008 0.0527589
3496 1 0.233282 0.474618 0.0681293
12459 2 -0.000707562 0.00803242 0.161025
2392 2 0.00657527 0.0517988 0.0924797
4800 1 0.0305311 0.0134859 0.104956
11663 1 0.063212 0.0645399 0.151459
12272 2 0.0176157 0.0521618 0.14206
2258 2 0.052291 0.0181312 0.143275
12218 1 0.0506771 0.05104 0.112984
498 1 0.0745003 0.0154141 0.104669
6627 1 0.081681 0.0592228 0.0864108
10487 2 0.11826 0.0735473 0.082625
2356 1 0.114897 0.0267295 0.0886346
1536 2 0.0939825 0.0449024 0.127212
11151 2 0.140418 0.0259161 0.130328
11015 1 0.0994272 0.00706089 0.146383
7240 1 0.127625 0.071211 0.123896
605 2 0.162246 0.0459393 0.0904336
413 1 0.167807 0.0636303 0.138338
4806 1 0.234668 0.0694962 0.0907257
11139 1 0.231505 0.0352756 0.112957
7651 1 0.188713 0.0282357 0.121534
10989 2 0.206585 0.0673408 0.121532
607 2 0.230822 0.00436077 0.141583
2126 1 0.229064 0.0484833 0.158029
1324 2 0.187486 0.0337198 0.163644
6780 2 0.0164121 0.151817 0.0808668
7102 1 0.0283438 0.0878007 0.121175
5135 1 0.0128055 0.107703 0.0892703
3063 2 0.0796594 0.0931561 0.11537
1991 1 0.0440511 0.12968 0.111288
10082 2 0.0647778 0.157466 0.139665
657 2 0.0466571 0.110238 0.150473
11754 2 0.018031 0.165284 0.135452
9657 1 0.00148118 0.125377 0.127765
6197 2 0.0845496 0.139986 0.0981575
13155 2 0.101438 0.0867685 0.161875
10984 1 0.100271 0.131765 0.149532
11440 1 0.120972 0.114687 0.118177
3862 2 0.148484 0.103156 0.150356
471 1 0.143578 0.144092 0.15006
10826 2 0.162542 0.0924287 0.101649
6903 2 0.159529 0.140568 0.109971
4891 2 0.120115 0.166452 0.122348
4770 1 0.231593 0.0921959 0.158088
10649 1 0.199746 0.119504 0.0941888
6923 1 0.199476 0.146551 0.127584
342 1 0.191449 0.106655 0.136038
2662 2 0.235524 0.14381 0.0976145
1589 2 0.235473 0.134474 0.149533
4475 1 0.23083 0.10506 0.11699
13487 1 0.193219 0.164378 0.0927708
2522 2 0.187549 0.135064 0.168085
12414 2 0.0467684 0.22076 0.0858117
7409 1 0.0483368 0.173189 0.100246
12842 2 0.00367388 0.237643 0.114927
10837 1 0.00667507 0.206356 0.149342
729 1 0.00883206 0.19575 0.101233
2846 2 0.0473397 0.205836 0.130326
2553 1 0.0625172 0.226565 0.163223
1346 2 0.0225671 0.24567 0.162487
810 1 0.0872521 0.227433 0.118624
1672 2 0.104721 0.212944 0.0820688
8396 1 0.0837377 0.184941 0.109883
13393 1 0.0873609 0.195655 0.150129
1459 1 0.148307 0.187446 0.0949462
12730 2 0.126838 0.216334 0.136258
9990 2 0.152681 0.229325 0.100685
2308 1 0.119578 0.17515 0.164563
11752 2 0.16636 0.180173 0.136281
8327 1 0.167444 0.223023 0.140929
13473 1 0.188925 0.201702 0.110106
412 2 0.227161 0.219668 0.0958436
7447 2 0.223317 0.180254 0.134164
12527 1 0.208233 0.22414 0.141074
10426 1 0.193685 0.244662 0.103216
444 1 0.250728 0.218486 0.133857
10721 1 0.081176 0.252074 0.0810803
2940 2 0.058429 0.254666 0.119815
7229 2 0.011223 0.316927 0.106527
1340 2 0.0584421 0.297629 0.0916224
7896 1 0.0253881 0.268878 0.0912685
6791 1 0.035268 0.290287 0.13398
12211 2 0.0126581 0.324432 0.158586
3420 1 0.0509068 0.329423 0.123352
5415 2 0.0813974 0.297673 0.137033
3591 2 0.0990757 0.252399 0.156296
1810 1 0.0996073 0.306532 0.0924332
2280 1 0.143153 0.262228 0.134334
6842 2 0.111493 0.264938 0.107162
3133 2 0.131038 0.312482 0.122986
10734 1 0.123218 0.288674 0.158672
11009 1 0.106206 0.330393 0.161163
11633 2 0.162774 0.276853 0.098488
4694 1 0.131247 0.334339 0.0873057
2467 1 0.17272 0.303801 0.137657
10602 2 0.175932 0.321687 0.0843284
2097 2 0.185973 0.263285 0.14536
3654 1 0.203727 0.290267 0.111258
2179 2 0.236659 0.261013 0.119312
11937 1 0.223435 0.290169 0.149234
9569 1 0.244909 0.32633 0.152749
10899 1 0.245187 0.305036 0.114377
4855 2 0.207743 0.330646 0.127763
12736 2 0.0228135 0.361858 0.121765
11898 2 0.0635088 0.375138 0.11146
5946 2 0.0648854 0.350944 0.156555
1556 2 0.0478239 0.396883 0.157357
10719 1 0.0282139 0.405968 0.114705
371 1 0.0976751 0.341732 0.123007
224 1 0.0910711 0.381625 0.140957
8110 1 0.0928651 0.406204 0.106911
110 2 0.120313 0.37379 0.0992075
189 1 0.130758 0.362945 0.140256
869 2 0.123701 0.412616 0.138168
5292 2 0.165004 0.39616 0.11383
10429 2 0.166978 0.348137 0.124689
13132 2 0.16099 0.383378 0.165598
3571 2 0.233052 0.410154 0.0837799
1613 2 0.206378 0.371436 0.0982143
12481 1 0.197376 0.382406 0.141016
11230 1 0.237423 0.393688 0.128335
10777 2 0.233791 0.370212 0.162604
12963 1 0.192262 0.35004 0.164065
9571 1 0.029792 0.49148 0.0816257
4011 2 0.0583994 0.423968 0.088078
2761 2 0.0140961 0.444166 0.0864549
5938 1 0.068547 0.424292 0.135427
298 2 0.0283085 0.441737 0.139145
84 2 0.0664465 0.470935 0.146979
5057 1 0.0529118 0.465725 0.104903
660 1 0.00800663 0.47265 0.116414
7609 1 0.12799 0.42388 0.0944201
3996 2 0.162484 0.47541 0.0853223
5264 1 0.122427 0.48479 0.100926
12421 1 0.101586 0.445746 0.155397
3909 2 0.0978269 0.45169 0.1085
1755 1 0.139561 0.456815 0.123619
2101 2 0.111066 0.485747 0.139594
12676 2 0.155668 0.500138 0.13745
4940 1 0.253862 0.36942 0.434858
8382 1 0.201534 0.446942 0.0841912
95 1 0.165838 0.435202 0.099659
39 1 0.165951 0.427668 0.144517
5973 1 0.203898 0.417383 0.115409
755 1 0.251901 0.424853 0.269496
6834 2 0.208674 0.425512 0.159383
2529 2 0.189682 0.461384 0.129385
538 1 0.226422 0.463874 0.15542
423 2 0.233704 0.460547 0.111723
12232 1 0.00794509 0.0385247 0.188818
5601 1 0.0308029 0.0625222 0.215994
12583 2 0.0377832 0.0216008 0.232132
3960 2 0.0503315 0.0393732 0.186082
8646 1 0.0746145 0.0514041 0.223798
1456 1 0.0784191 0.0081299 0.211788
12174 1 0.0282142 0.0762123 0.174562
1963 2 0.067264 0.0824223 0.194301
1105 2 0.139951 0.0546029 0.169426
279 1 0.150153 0.0154275 0.180722
5296 2 0.0972784 0.0355928 0.180482
11246 1 0.12571 0.0249647 0.214549
434 2 0.113001 0.0688673 0.21371
2044 1 0.136447 0.0490021 0.246993
2155 2 0.162371 0.0490131 0.211293
7495 2 0.098751 0.0261317 0.247582
1955 1 0.206962 0.0477426 0.200626
5577 2 0.189028 0.01111 0.215131
10888 2 0.228232 0.0470591 0.239978
10851 2 0.240718 0.0222677 0.19454
997 2 0.24271 0.0764637 0.199455
8 2 0.189463 0.0805182 0.17394
11138 2 0.00234753 0.0930898 0.239076
3392 1 0.0304361 0.107061 0.20432
5637 1 0.0397297 0.147349 0.180762
652 2 0.0563438 0.137511 0.222671
7117 2 0.00660546 0.145546 0.223486
9074 1 0.076436 0.121251 0.184965
4212 2 0.0055781 0.126668 0.175114
5585 2 0.0525388 0.0911672 0.247067
2385 2 0.0829204 0.163293 0.182858
2007 1 0.147382 0.0918198 0.194763
4030 2 0.156681 0.0883354 0.241263
4899 1 0.0879523 0.105394 0.221688
10778 2 0.119747 0.128273 0.189416
817 1 0.100055 0.147224 0.218936
3461 2 0.152861 0.147821 0.233785
3889 2 0.156327 0.159506 0.187309
2876 1 0.127973 0.111823 0.23094
3167 2 0.201392 0.0871442 0.221889
12649 1 0.173268 0.11891 0.20931
9110 1 0.217228 0.115272 0.188925
6417 2 0.230927 0.126132 0.226878
11116 1 0.198891 0.155626 0.211056
5894 2 0.234203 0.163385 0.187398
12836 1 0.047901 0.186416 0.16733
10730 2 0.00684469 0.175244 0.184725
6898 2 0.0135957 0.205945 0.233515
1151 1 0.0427012 0.176076 0.211523
7101 2 0.0762394 0.203762 0.195049
8872 1 0.0331854 0.214943 0.192447
1160 1 0.0539058 0.216845 0.229256
2263 2 0.0780281 0.18062 0.241857
11164 2 0.0724499 0.250603 0.20114
12816 1 0.151729 0.201592 0.174772
10598 1 0.112043 0.220185 0.183788
2788 2 0.102564 0.224832 0.233649
11642 2 0.122104 0.183517 0.212655
1767 1 0.145959 0.225498 0.211119
8757 1 0.146558 0.245854 0.171997
4027 2 0.140529 0.201263 0.247945
4178 2 0.250247 0.21474 0.215112
8988 1 0.168812 0.191118 0.211659
10914 1 0.231847 0.206363 0.172543
5027 1 0.193775 0.181533 0.172704
3920 1 0.211513 0.195828 0.209653
2330 2 0.189392 0.226092 0.181277
6810 2 0.187409 0.228656 0.229917
8967 2 0.239475 0.17355 0.241395
3636 1 0.22262 0.247159 0.209951
1737 1 0.0572434 0.270295 0.164437
11781 1 0.0537902 0.311625 0.167965
11880 2 0.0252847 0.251954 0.213306
11158 1 0.020362 0.287226 0.178549
4159 2 0.0485253 0.29854 0.213371
2035 1 0.0223727 0.328568 0.237755
7644 1 0.0620274 0.332228 0.232801
8373 1 0.0142738 0.283876 0.246614
7861 2 0.0624329 0.262087 0.248762
3946 1 0.162599 0.286757 0.173328
1776 2 0.0892443 0.294197 0.184366
2203 2 0.121323 0.261415 0.205737
646 2 0.097057 0.30489 0.233684
8778 1 0.127968 0.303188 0.198643
664 2 0.143142 0.291318 0.236522
1148 2 0.15083 0.327489 0.169358
4650 1 0.163139 0.262652 0.209704
9312 1 0.171869 0.309966 0.209302
3864 2 0.237018 0.249594 0.167262
227 1 0.200615 0.269689 0.185464
36 2 0.198928 0.311156 0.176306
176 2 0.198321 0.281146 0.229271
8919 1 0.213023 0.324023 0.225194
2449 2 0.240344 0.291497 0.194351
463 2 0.242284 0.25548 0.248165
188 1 0.0161779 0.366236 0.167069
10423 2 0.00874049 0.370058 0.230566
1080 1 0.0699856 0.378542 0.192368
222 2 0.0372439 0.345579 0.197327
3931 1 0.0545596 0.373451 0.228224
5939 1 0.0265953 0.390541 0.197719
545 2 0.0612807 0.414171 0.214632
12064 1 0.0864574 0.336426 0.197833
6230 2 0.135386 0.340286 0.218609
12664 1 0.0881535 0.409131 0.171688
2012 2 0.0952267 0.362241 0.234652
11936 1 0.103571 0.40009 0.214328
11713 2 0.113421 0.369156 0.179847
791 1 0.147 0.384918 0.20922
6848 1 0.129239 0.414448 0.180783
11995 1 0.162283 0.36964 0.246082
259 1 0.127064 0.387933 0.249208
802 1 0.230235 0.337505 0.188557
1095 2 0.186828 0.399568 0.228217
2535 2 0.184931 0.352306 0.206717
6033 1 0.203759 0.39012 0.186257
12120 1 0.22474 0.371268 0.215646
120 2 0.245766 0.409815 0.225304
5627 1 0.245361 0.411183 0.178718
1848 1 0.0599153 0.438592 0.176386
8941 1 0.0673977 0.482368 0.190206
12279 2 0.0226354 0.469507 0.190275
3113 1 0.0557118 0.457479 0.222028
343 2 0.0143756 0.431717 0.224153
6975 1 0.0180031 0.425129 0.178877
11943 1 0.0211186 0.470174 0.243894
6221 2 0.14345 0.454519 0.17122
12284 2 0.0916915 0.481478 0.233796
1174 1 0.154339 0.495318 0.184345
1832 1 0.159564 0.49239 0.240974
11096 2 0.136605 0.425734 0.221563
8159 1 0.108827 0.48929 0.181906
2583 1 0.0950905 0.435754 0.238261
9313 2 0.097018 0.448815 0.196245
3771 1 0.133338 0.46988 0.214259
8878 1 0.171378 0.420626 0.188064
1873 2 0.176541 0.45551 0.21984
8794 1 0.185287 0.460291 0.176706
9205 2 0.218026 0.477441 0.202553
10498 1 0.214569 0.433795 0.205718
2633 2 0.245091 0.458443 0.240337
6203 1 0.00180043 0.0175729 0.256846
5562 1 0.0247014 0.0584075 0.256817
1880 1 0.0396355 0.00998903 0.276235
12430 1 0.0499078 0.0373773 0.316278
4758 2 0.0648971 0.0477011 0.27071
12761 2 0.0143028 0.0417377 0.294613
4684 1 0.0489231 0.0745565 0.300066
1126 2 0.0808649 0.00688717 0.299669
503 2 0.0915629 0.0627923 0.312241
8530 2 0.151243 0.0112793 0.253932
10884 2 0.123732 0.0397416 0.288852
12678 1 0.151357 0.0725686 0.280914
9425 2 0.140084 0.0790697 0.322626
1323 2 0.104478 0.0811757 0.258807
8755 1 0.149768 0.00432087 0.302608
2510 1 0.179713 0.0526507 0.251827
159 2 0.201667 0.0175139 0.264281
3747 1 0.224185 0.0445068 0.292941
6479 2 0.177648 0.0387549 0.301594
2361 2 0.194082 0.0774831 0.325636
2415 2 0.237224 0.0808182 0.313133
9496 1 0.245401 0.0107612 0.272683
3965 2 0.19855 0.0796155 0.275429
497 1 0.212535 0.0383977 0.332036
2184 1 0.180454 0.00743149 0.332567
11391 2 0.218426 0.481662 0.453447
7414 2 0.0140911 0.0955747 0.285543
12542 1 0.0341188 0.127902 0.260294
4556 2 0.0681962 0.111864 0.291377
7048 1 0.0300531 0.139051 0.300673
10800 1 0.0673161 0.145973 0.323502
12437 1 0.068232 0.16064 0.282938
11951 2 0.0450974 0.107731 0.331817
6918 2 0.093219 0.12884 0.258256
2506 2 0.106685 0.145677 0.305618
10820 2 0.144237 0.119626 0.276658
12059 1 0.111511 0.100202 0.296359
680 1 0.140494 0.123918 0.322857
354 1 0.120265 0.160927 0.258073
6034 2 0.19058 0.122999 0.257186
621 1 0.177138 0.110454 0.306546
7624 1 0.216957 0.116678 0.297291
5690 1 0.228706 0.143675 0.267917
7685 2 0.226088 0.157685 0.313457
9303 1 0.190741 0.153496 0.288259
3447 2 0.175277 0.151985 0.32622
8308 2 0.245584 0.094758 0.259462
2826 1 0.219081 0.428663 0.463875
12163 2 0.0307221 0.172514 0.26171
10500 1 0.0218245 0.242833 0.260121
10412 1 0.00972385 0.207656 0.279668
8901 2 0.0433836 0.180696 0.309583
10673 2 0.0543356 0.214974 0.273754
5634 2 0.0160339 0.23094 0.312159
8898 2 0.0672761 0.220699 0.322587
6633 2 0.152218 0.170954 0.286414
11067 1 0.0870595 0.18346 0.317529
11492 2 0.101533 0.190804 0.281029
2625 1 0.141243 0.218629 0.292964
1636 2 0.0971301 0.23805 0.281387
283 1 0.111488 0.225777 0.323994
459 2 0.131102 0.184848 0.327405
12947 2 0.152228 0.247583 0.256376
7301 2 0.191927 0.178463 0.24928
8066 1 0.22119 0.215971 0.248606
4244 1 0.179404 0.213595 0.272507
10291 1 0.215971 0.18798 0.282324
3780 2 0.188039 0.201376 0.31376
4206 2 0.218563 0.233791 0.298607
12157 1 0.239627 0.19822 0.316658
8791 1 0.174402 0.248744 0.298462
10882 1 0.0541312 0.256344 0.295184
8574 2 0.0463448 0.309313 0.269627
6309 2 0.0213184 0.282194 0.299399
11107 1 0.0594692 0.297668 0.313198
2051 1 0.0276057 0.327654 0.307833
565 2 0.0791664 0.339799 0.306742
8539 1 0.109988 0.266384 0.251697
12254 2 0.0867664 0.286191 0.283484
843 1 0.0897199 0.262999 0.320971
5514 2 0.133664 0.263292 0.300054
12629 1 0.124632 0.302773 0.276524
11035 2 0.113482 0.302935 0.323333
12367 2 0.157709 0.316104 0.3014
4098 1 0.0915615 0.330864 0.267673
3668 2 0.175018 0.323056 0.252406
2610 1 0.19723 0.252049 0.264735
7225 1 0.172823 0.286175 0.274311
536 2 0.222571 0.301513 0.266164
12975 2 0.202586 0.281677 0.308597
481 1 0.200871 0.324775 0.296054
8273 1 0.23967 0.308487 0.305857
13287 1 0.247211 0.26719 0.288645
2663 1 0.0362894 0.403496 0.251571
10763 1 0.0806895 0.399522 0.251565
2444 1 0.0136286 0.351422 0.271547
12256 2 0.00755253 0.392205 0.282404
3741 2 0.0541419 0.359912 0.268461
8974 2 0.0317055 0.371485 0.317086
8707 2 0.0627396 0.398872 0.290148
901 1 0.0762133 0.373129 0.331463
325 2 0.13327 0.344692 0.26509
12909 1 0.122523 0.343997 0.308262
9368 1 0.105584 0.400849 0.314479
308 1 0.097594 0.37239 0.285171
489 2 0.143807 0.387458 0.291702
2526 2 0.205617 0.354968 0.256766
11653 1 0.172806 0.355349 0.287767
2617 1 0.223375 0.393613 0.261276
11383 2 0.210153 0.371107 0.300875
8943 1 0.181784 0.39551 0.275079
2536 1 0.184381 0.398032 0.320037
3974 1 0.240634 0.342542 0.276861
3367 1 0.233928 0.345501 0.321318
439 1 0.240813 0.38894 0.33014
1839 2 0.168954 0.360317 0.331363
5401 1 0.0280936 0.42088 0.311479
3073 2 0.012408 0.48416 0.289825
2344 1 0.056672 0.48338 0.263116
11789 2 0.058177 0.440279 0.262261
3150 1 0.0165182 0.436921 0.277057
2499 2 0.0515202 0.462176 0.311079
2482 1 0.0813691 0.436248 0.305315
2433 1 0.158196 0.421469 0.255948
2969 2 0.114164 0.420654 0.275367
2457 2 0.133736 0.461537 0.256627
13187 1 0.0948528 0.475445 0.317213
655 1 0.0986286 0.463002 0.277352
7441 2 0.120637 0.439688 0.324164
3486 2 0.134324 0.486363 0.30034
1835 2 0.164119 0.434545 0.299537
7164 1 0.159492 0.468034 0.331928
2750 2 0.249988 0.352409 0.115718
4200 2 0.201982 0.487351 0.25176
12380 2 0.21689 0.42114 0.299176
6585 2 0.205249 0.434993 0.254146
3900 1 0.173565 0.462674 0.268163
10944 1 0.22783 0.454826 0.323232
1998 1 0.224361 0.461808 0.281571
9555 1 0.19215 0.46894 0.305975
4119 2 0.237747 0.495073 0.316688
6729 1 0.243649 0.442675 0.432968
1362 2 0.0223081 0.00575453 0.373444
7614 1 0.00924944 0.0269565 0.335159
2741 2 0.0188152 0.069574 0.332092
8163 1 0.0671432 0.00275853 0.372851
2885 1 0.00887938 0.0602287 0.377868
10331 1 0.0443401 0.0396764 0.36082
1544 1 0.0674699 0.0713393 0.344017
11303 1 0.0413591 0.047101 0.403808
2268 2 0.0774987 0.0482678 0.384961
667 2 0.0416653 0.0855365 0.377348
6914 2 0.00163249 0.0288683 0.409928
3745 2 0.133176 0.0301141 0.33412
2584 1 0.0840566 0.0263945 0.342911
7589 1 0.0919438 0.0105802 0.407653
739 1 0.114953 0.0284018 0.375641
1418 1 0.107229 0.0669134 0.353242
1029 2 0.144064 0.0591758 0.376339
3680 1 0.160106 0.01382 0.371797
1447 2 0.138598 0.00919621 0.407901
606 1 0.118741 0.0465117 0.413356
11065 2 0.109965 0.0859769 0.403525
3762 1 0.172968 0.0452936 0.345981
10924 1 0.201437 0.0222076 0.36833
5535 1 0.218521 0.0391448 0.405162
4936 2 0.198615 0.0662914 0.375516
4621 1 0.176928 0.039049 0.400891
13163 2 0.239181 0.0480777 0.362766
11428 1 0.238234 0.0795022 0.400672
1612 1 0.235922 0.0040948 0.348202
11345 2 0.00290501 0.145839 0.390355
5633 1 0.0129563 0.112704 0.363007
3564 2 0.0211647 0.151665 0.344461
6567 2 0.0595286 0.136458 0.371462
2441 1 0.0332325 0.115083 0.404329
50 1 0.0825438 0.0961124 0.377133
7530 1 0.15878 0.0859693 0.402956
8533 2 0.0945314 0.111769 0.338471
6346 1 0.0981525 0.157825 0.352603
4937 1 0.104391 0.13033 0.386921
13362 2 0.138261 0.145551 0.358729
735 1 0.127623 0.101971 0.366841
7905 2 0.147548 0.130789 0.4053
7523 1 0.230139 0.0869533 0.357869
8693 2 0.16789 0.107145 0.357806
4184 1 0.234814 0.151088 0.360783
11550 2 0.185244 0.155385 0.376337
3857 2 0.2005 0.110885 0.394475
1239 2 0.210494 0.121684 0.343183
12539 1 0.22197 0.147449 0.404596
2758 1 0.245203 0.118318 0.382211
514 2 0.0802844 0.16997 0.396202
7993 1 0.036425 0.175587 0.387607
461 1 0.0603708 0.179068 0.35142
620 1 0.0219314 0.200214 0.341742
11235 2 0.0499332 0.214854 0.373913
5052 1 0.0133396 0.234959 0.361946
7256 2 0.0168474 0.230771 0.409708
10880 1 0.0796423 0.246235 0.362241
11365 2 0.152875 0.231093 0.335958
11526 2 0.090979 0.22913 0.401069
7674 2 0.130454 0.177615 0.389322
740 2 0.0972392 0.203358 0.359924
11263 1 0.13533 0.217574 0.374442
7149 1 0.163183 0.188014 0.354115
12531 2 0.166984 0.248466 0.380795
10486 1 0.193004 0.24445 0.336007
10385 2 0.174384 0.197469 0.398921
9004 1 0.209286 0.18216 0.347606
11334 1 0.190834 0.21666 0.364554
693 2 0.229558 0.227741 0.35134
9027 2 0.221308 0.187499 0.389371
11014 2 0.215003 0.235804 0.402029
4771 1 0.0463651 0.254268 0.386986
3912 1 0.0269615 0.300393 0.341235
462 1 0.00948135 0.271817 0.375993
11675 2 0.0431104 0.259306 0.340469
9509 2 0.0415007 0.299911 0.38267
12771 2 0.0763381 0.293117 0.352361
7459 1 0.0803856 0.322182 0.389067
12452 2 0.0851699 0.27702 0.401369
11410 2 0.051745 0.335878 0.348729
2533 2 0.197235 0.447323 0.430366
2508 2 0.119236 0.257866 0.354507
4250 1 0.128816 0.263735 0.397464
5454 1 0.117896 0.298863 0.371337
1197 2 0.159623 0.296916 0.388149
2745 2 0.144326 0.327653 0.349381
4727 2 0.160851 0.279419 0.340978
2134 1 0.0982702 0.33517 0.349266
10942 2 0.192794 0.318381 0.341555
957 1 0.192264 0.274655 0.406497
623 2 0.21009 0.272953 0.365559
8407 2 0.206425 0.313283 0.392173
7631 2 0.242412 0.316732 0.35191
8543 2 0.186106 0.451972 0.477038
3130 2 0.118253 0.445831 0.477436
364 2 0.064349 0.412089 0.337778
10611 1 0.0170642 0.384212 0.393864
12461 2 0.0148945 0.40669 0.352656
6860 1 0.0450491 0.377644 0.360623
12489 2 0.042599 0.3495 0.398078
2702 2 0.0571785 0.412594 0.386685
9782 1 0.145603 0.404607 0.336115
7066 2 0.0844267 0.369925 0.377004
703 2 0.118125 0.371209 0.339181
13353 2 0.122134 0.340115 0.388687
10988 2 0.139104 0.383843 0.381268
2566 2 0.107622 0.416502 0.368496
4842 1 0.101363 0.389694 0.41337
9636 2 0.174693 0.351239 0.384433
9254 1 0.205356 0.381447 0.394832
4049 2 0.212761 0.365437 0.35395
11206 2 0.181312 0.401029 0.365334
704 2 0.241619 0.351922 0.394788
7489 2 0.174822 0.415068 0.409766
2521 1 0.246695 0.392509 0.378431
7412 1 0.0153853 0.424963 0.392914
1084 1 0.00946375 0.489868 0.391105
533 2 0.0448298 0.458402 0.391203
827 1 0.0350067 0.445465 0.351532
544 2 0.0195289 0.486928 0.345728
11237 2 0.0787185 0.455736 0.355618
9602 1 0.0859285 0.439 0.404838
11104 2 0.08665 0.486139 0.394435
11362 2 0.135264 0.499555 0.399992
1187 2 0.151828 0.44113 0.364601
11211 1 0.117895 0.459747 0.385361
1015 1 0.1547 0.460188 0.40682
2414 2 0.122307 0.486603 0.351902
4756 2 0.128342 0.424988 0.410836
5413 1 0.165295 0.487774 0.369118
2086 1 0.187206 0.436699 0.336771
9797 1 0.220686 0.420361 0.39717
8106 1 0.241852 0.493866 0.360895
5840 2 0.225903 0.42184 0.353961
3887 2 0.204298 0.472705 0.353539
10538 2 0.230926 0.466386 0.39562
3520 1 0.19139 0.447331 0.382264
1119 2 0.191139 0.49051 0.406945
4463 1 0.000962921 0.0666139 0.466085
2988 1 0.0602237 0.0833311 0.417186
11692 2 0.0474361 0.00642677 0.42037
415 2 0.0243631 0.0384208 0.494252
13272 2 0.0133643 0.0754589 0.423374
11008 2 0.0616494 0.0152826 0.467902
11089 1 0.024507 0.0375224 0.448002
4553 1 0.0484497 0.0661228 0.467333
10885 2 0.0767429 0.0499604 0.434797
377 2 0.0907075 0.052211 0.487171
4972 2 0.156749 0.0556364 0.435768
614 2 0.112822 0.0133783 0.448046
223 1 0.13664 0.036636 0.477062
11007 1 0.116107 0.0614793 0.452529
2742 1 0.160135 0.0137547 0.449
12431 1 0.159953 0.0757542 0.47219
4568 1 0.105551 0.0111373 0.494015
2751 1 0.230581 0.00546384 0.437846
4137 2 0.201209 0.0748422 0.425811
4070 2 0.179652 0.032073 0.487557
9989 1 0.195491 0.0338185 0.443522
1555 2 0.205653 0.0724949 0.474156
9504 1 0.22487 0.0259142 0.47544
12409 2 0.245815 0.048156 0.441071
10529 1 0.00541081 0.116675 0.471921
3867 1 0.00381902 0.128299 0.430237
921 1 0.0421434 0.152566 0.424042
10786 2 0.0772874 0.122125 0.421159
942 2 0.0189986 0.156003 0.464249
9269 2 0.0377458 0.10633 0.449284
2345 1 0.0552896 0.139367 0.468079
4107 2 0.0714207 0.100753 0.490107
1489 1 0.0846814 0.0911223 0.451163
11361 1 0.11076 0.149362 0.425876
10980 1 0.0995407 0.12947 0.464128
3210 2 0.121543 0.0931167 0.485262
11742 2 0.129193 0.101144 0.441337
12545 1 0.141694 0.137867 0.452031
884 1 0.129439 0.135281 0.496928
6097 1 0.113401 0.16802 0.46394
2734 2 0.157672 0.165739 0.47802
13134 2 0.167594 0.116923 0.478717
3982 1 0.23287 0.158324 0.439958
1050 1 0.243502 0.0869758 0.458678
7814 2 0.241387 0.11603 0.426039
10677 1 0.172097 0.107649 0.436709
2686 1 0.208462 0.11757 0.452499
7394 2 0.184336 0.151868 0.430116
11670 2 0.204582 0.15547 0.472496
2405 1 0.246726 0.131155 0.47015
1023 2 0.216551 0.117105 0.50051
4400 2 0.00200671 0.180845 0.425947
4437 1 0.153255 0.429414 0.49533
4330 1 0.0570575 0.201317 0.416716
2705 1 0.0587555 0.245047 0.426009
12450 2 0.0740625 0.170589 0.448905
380 1 0.0476636 0.177488 0.488132
7497 2 0.0373012 0.206191 0.45374
5116 2 0.0540105 0.239149 0.485586
4106 1 0.0267766 0.248441 0.454645
6454 1 0.0802315 0.219063 0.450561
12482 2 0.137295 0.223528 0.419181
10728 2 0.0835411 0.201677 0.493633
9053 1 0.104226 0.192516 0.426211
778 1 0.143508 0.176693 0.43356
2790 2 0.12375 0.20839 0.465488
615 1 0.151003 0.244624 0.457393
4773 1 0.0969687 0.248531 0.484299
12464 1 0.174712 0.237174 0.421551
1086 1 0.232409 0.189786 0.468902
833 2 0.174001 0.205923 0.449947
2440 2 0.218363 0.228346 0.450072
154 1 0.199585 0.201313 0.483688
914 1 0.209108 0.190787 0.432693
4322 1 0.184739 0.240001 0.480953
1997 1 0.0105662 0.321981 0.419814
11560 1 0.0303583 0.277299 0.494539
5319 1 0.00414295 0.279632 0.462347
11725 2 0.0236495 0.278038 0.423172
12274 2 0.0308626 0.314675 0.467848
552 2 0.0581685 0.313602 0.429259
7132 2 0.0683312 0.273927 0.457362
12566 1 0.0750363 0.298424 0.491857
6896 2 0.108391 0.255303 0.441253
4271 2 0.113902 0.30497 0.422486
2660 1 0.11372 0.288037 0.471155
6837 2 0.152699 0.277622 0.432687
1294 2 0.146891 0.315714 0.46579
10953 2 0.0945815 0.326835 0.457941
5489 2 0.140437 0.263988 0.496193
936 1 0.162809 0.327441 0.421719
7371 1 0.174597 0.282717 0.474614
11639 1 0.240272 0.306138 0.471158
907 1 0.192861 0.261829 0.446142
12734 1 0.21459 0.274679 0.476176
700 2 0.229476 0.275286 0.429132
8075 2 0.197212 0.306471 0.444933
772 1 0.241852 0.322242 0.432724
7453 2 0.196529 0.313217 0.49503
4750 2 0.0127884 0.358486 0.442283
11142 2 0.0119195 0.405768 0.432407
2306 1 0.0289748 0.349737 0.486895
896 2 0.0589409 0.386188 0.424512
4142 1 0.0566183 0.351227 0.452618
597 2 0.0432227 0.39302 0.476845
1600 1 0.00468255 0.381325 0.492835
1068 2 0.0708779 0.343061 0.495555
517 1 0.0848628 0.349151 0.419999
11529 1 0.117911 0.402652 0.490956
230 1 0.128441 0.358729 0.473953
11113 2 0.0924645 0.378119 0.46024
11528 2 0.139087 0.400536 0.455015
9695 2 0.128011 0.35509 0.431419
1139 1 0.166671 0.374137 0.420446
4416 2 0.204885 0.350202 0.426019
6657 2 0.173784 0.355509 0.459535
10823 1 0.180962 0.409458 0.461645
892 2 0.227403 0.348371 0.467784
10970 2 0.215594 0.394108 0.435505
2863 2 0.222343 0.392056 0.487813
564 2 0.191887 -0.00116327 0.411287
12713 2 0.0393019 0.488254 0.497201
1019 2 0.00964193 0.431548 0.472228
7280 1 0.0367633 0.470789 0.45667
10626 1 0.0667877 0.471225 0.427307
6234 1 0.0814944 0.456091 0.462897
2989 2 0.00886585 0.456861 0.427772
1904 1 0.0471786 0.441863 0.488476
6989 1 0.0795613 0.417212 0.478399
12479 2 0.0563625 0.430824 0.440785
4407 1 0.151063 0.44101 0.44915
11071 2 0.113952 0.463963 0.430873
559 1 0.0994468 0.419534 0.444281
12391 2 0.160691 0.483859 0.447079
4316 1 0.149419 0.474984 0.490189
12230 1 0.120467 0.493861 0.46512
7298 1 0.248215 0.027745 0.0725995
2222 1 0.251954 0.00116098 0.0330163
5693 2 0.198385 -0.000160509 0.0908778
175 1 0.0323157 0.00308646 0.190542
2120 2 0.215717 -0.000318891 0.310866
9940 1 0.0497055 0.498357 0.374375
11110 2 0.0241706 0.0881065 0.496186
1741 1 0.0236392 0.210691 0.497228
11672 2 0.228554 0.235767 0.497603
9322 2 0.162876 0.384048 0.497389
240 2 0.141942 0.478206 0.00066343
5885 2 0.214721 0.0792445 -0.00137489
2025 2 0.0994787 0.200064 0.00245725
1976 1 0.239154 0.275545 -0.00100226
4124 1 0.082984 0.371137 0.00472403