ITEM: TIMESTEP
700000
ITEM: NUMBER OF ATOMS
13500
ITEM: BOX BOUNDS pp pp pp
9.7335753938109448e-01 5.9026642460620039e+01
9.7335753938109448e-01 5.9026642460620039e+01
9.7335753938109448e-01 5.9026642460620039e+01
ITEM: ATOMS id type xs ys zs
11134 1 0.025575 0.0618821 0.0170888
10314 1 0.0653227 0.0510225 0.0333311
9981 2 0.0384143 0.0203974 0.0167006
8123 2 0.0207754 0.0653442 0.0632172
136 1 0.0465372 0.0248356 0.0596197
6774 1 0.0646164 0.0608959 0.0770841
10538 2 0.00062553 0.0252766 0.0436982
321 2 0.0920838 0.0262403 0.050923
2500 2 0.135031 0.0523175 0.038204
543 1 0.137624 0.0116596 0.0667113
6470 2 0.0855789 0.0348934 0.000679034
511 2 0.161691 0.0462399 0.0817137
7230 2 0.126163 0.00124538 0.0211846
5333 2 0.174662 0.0176178 0.0441512
6289 2 0.181678 0.0665943 0.0352531
9567 1 0.205744 0.0471273 0.0666371
455 1 0.224434 0.072356 0.0308423
6695 1 0.210848 0.032549 0.0209696
1007 2 0.220405 0.0052361 0.0581819
12573 1 0.245307 0.00315078 0.0202299
556 1 0.240269 0.0689719 0.0836192
4112 2 0.251717 0.0405278 0.0487205
2953 2 0.24902 0.0463925 0.00215866
6509 2 0.300437 0.0316051 0.058081
3090 1 0.282338 0.0161271 0.0124422
10329 2 0.325402 0.0738162 0.0551368
9295 2 0.298776 0.054582 0.0170826
6472 1 0.335654 0.031607 0.0345259
12791 2 0.375158 0.0494965 0.040044
6726 1 0.402924 0.0073525 0.0241304
2712 1 0.345002 0.0394448 0.0771441
11426 1 0.375988 0.00822776 0.0638324
5580 1 0.345442 0.0637193 0.00943
9230 1 0.411915 0.0492581 0.020346
284 1 0.368333 0.0802893 0.0682389
3202 2 0.415108 0.0273694 0.0614815
3600 2 0.417143 0.0703324 0.0737636
3130 2 0.485929 0.243854 0.000588849
5157 1 0.0864521 0.162356 0.00325566
10775 1 0.490928 0.0287448 0.0276058
10113 2 0.475285 0.0343912 0.0681929
3557 2 0.446189 0.0210047 0.02768
10304 2 0.447548 0.0673388 0.0342551
2702 1 0.492349 0.0697391 0.0484796
6405 2 0.494633 0.0691082 0.00643334
1856 2 0.465623 0.084348 0.0795659
1150 1 0.446477 0.000603983 0.0746937
3260 1 0.0502497 0.0875113 0.0424674
3253 2 0.0606164 0.126748 0.0576041
9928 2 0.0186565 0.147043 0.0374743
9539 1 0.0230437 0.107699 0.0112046
295 1 0.0109607 0.10773 0.054688
398 2 0.0700563 0.123208 0.0117556
10414 1 0.0198223 0.140242 0.0852278
787 2 0.0939229 0.0848738 0.0478672
5182 1 0.129177 0.0840029 0.0771832
7277 1 0.106178 0.121555 0.0682897
38 2 0.146735 0.105446 0.0416094
4488 2 0.115149 0.132303 0.0247696
3159 1 0.127977 0.159964 0.0664714
2803 2 0.164802 0.153758 0.0379189
515 2 0.0895583 0.166098 0.045623
809 1 0.145811 0.124061 0.0822202
4185 1 0.172186 0.0865638 0.0714476
486 1 0.189707 0.111411 0.0207257
3687 2 0.234724 0.109189 0.0105872
210 1 0.21271 0.1444 0.0387351
7228 2 0.216803 0.100264 0.0628754
294 1 0.18452 0.125762 0.0618861
35 1 0.244678 0.159855 0.0185453
348 1 0.251039 0.130048 0.0515198
7265 2 0.266319 0.0859533 0.0394837
3760 1 0.312954 0.0975875 0.0183972
841 2 0.297544 0.116002 0.0558686
9706 1 0.277716 0.12506 0.0156219
11021 2 0.32281 0.14317 0.0208409
3187 1 0.281142 0.158725 0.0439343
729 1 0.319995 0.155221 0.0626841
10058 1 0.400865 0.0853746 0.0362459
75 1 0.339781 0.117211 0.0713196
10344 2 0.357426 0.100904 0.02835
532 1 0.39842 0.127261 0.0275954
11161 2 0.387653 0.116267 0.0715313
2891 1 0.363118 0.141089 0.0432179
7254 2 0.365639 0.158934 0.0819219
5624 2 0.418687 0.152249 0.0747173
11403 1 0.43298 0.107923 0.0531993
713 2 0.441015 0.145504 0.0303907
448 1 0.468239 0.105267 0.0248218
641 1 0.484818 0.141022 0.0356294
337 2 0.425403 0.102778 0.00326101
4024 2 0.466299 0.134615 0.083567
440 1 0.0511273 0.175124 0.0274127
4968 2 0.0197406 0.197065 0.0518831
3305 1 0.0466019 0.218608 0.0216474
10156 1 0.0684749 0.206107 0.0566048
804 2 0.0374412 0.240182 0.0593152
12988 2 0.00723938 0.24275 0.0197733
6980 2 0.0508687 0.170297 0.0801985
4480 2 0.0106792 0.188751 0.00594336
1042 2 0.08174 0.241105 0.034793
12229 1 0.0764036 0.244078 0.0818178
103 1 0.128645 0.180678 0.0279757
1041 2 0.112833 0.21064 0.059208
13045 2 0.134339 0.220646 0.0137086
2854 2 0.08859 0.203854 0.00679891
1026 2 0.153589 0.246708 0.0511756
2508 2 0.164414 0.200246 0.056995
3203 1 0.168222 0.184204 0.00968262
10526 1 0.197885 0.170119 0.0658522
3520 2 0.21276 0.192109 0.0301264
11688 2 0.24232 0.230286 0.0457118
2659 1 0.199508 0.238596 0.047227
13406 2 0.242789 0.1787 0.0636257
2604 1 0.207546 0.209927 0.0732518
1028 2 0.180611 0.228211 0.00962727
2697 1 0.225496 0.231812 0.00368918
3550 2 0.269267 0.198636 0.0258974
428 2 0.289666 0.19295 0.0730457
689 1 0.310384 0.188596 0.0350092
7003 1 0.292629 0.231165 0.0446732
7513 1 0.265313 0.243646 0.0114708
2834 2 0.312328 0.222734 0.00191074
970 2 0.332716 0.223065 0.0471647
4535 1 0.332205 0.191934 0.0769816
3145 2 0.395454 0.172306 0.031459
3608 2 0.350913 0.18022 0.0396595
6718 2 0.382724 0.209933 0.0677503
5844 2 0.404957 0.222037 0.0112721
811 1 0.363071 0.214282 0.0162525
10109 1 0.35565 0.239829 0.0830549
340 1 0.418574 0.240399 0.0482435
13304 1 0.464997 0.17097 0.0615774
9624 2 0.49071 0.205515 0.0353273
7054 2 0.437504 0.198291 0.0465019
4890 1 0.464472 0.177512 0.0182597
850 1 0.451985 0.217967 0.0141419
4424 2 0.463158 0.244145 0.053502
4046 1 0.475409 0.212787 0.0808462
2197 2 0.00270283 0.340618 0.410805
7949 1 0.0472562 0.267404 0.0247491
336 1 0.0656127 0.27848 0.0604579
572 2 0.017917 0.284628 0.0577692
4648 2 0.0497793 0.3158 0.0348046
5678 2 0.0150764 0.292162 0.00686331
11173 1 0.053622 0.31231 0.0824359
979 2 0.09085 0.29038 0.0250506
441 2 0.0968038 0.315783 0.0644756
11067 1 0.12137 0.261549 0.0265743
7090 2 0.110294 0.26589 0.0682624
574 2 0.141872 0.300736 0.0435115
3317 1 0.116476 0.326801 0.0183688
116 1 0.154873 0.332247 0.0122244
2814 1 0.167885 0.272008 0.0204451
1211 2 0.172538 0.319647 0.0765137
4333 2 0.222578 0.260548 0.0767341
7067 2 0.211948 0.273214 0.0241754
6988 1 0.185303 0.278145 0.0622015
56 1 0.23033 0.312456 0.0277543
1244 2 0.21944 0.308771 0.0677745
3640 1 0.184396 0.3088 0.0327618
6533 2 0.274213 0.248862 0.0788545
7162 2 0.257322 0.278333 0.0372387
1205 1 0.292344 0.295165 0.05942
37 2 0.30968 0.319434 0.0149125
10000 2 0.305735 0.270791 0.02523
7031 2 0.267206 0.329807 0.046937
3870 1 0.414538 0.498774 0.410892
9097 1 0.332756 0.266784 0.0561986
1958 1 0.332009 0.307519 0.0542142
10026 1 0.394967 0.250489 0.0816499
9316 2 0.375276 0.251905 0.0402727
1657 2 0.397327 0.323722 0.00944046
3504 1 0.394367 0.301551 0.0473335
7998 2 0.356617 0.291291 0.0215586
13221 1 0.402214 0.276332 0.0173268
7212 1 0.350315 0.334889 0.0237818
7259 2 0.367678 0.286933 0.0816185
9408 1 0.406337 0.318215 0.0821152
10247 2 0.424054 0.278968 0.0630104
6602 1 0.434639 0.304877 0.0308066
9606 1 0.472826 0.27826 0.0316314
179 2 0.472159 0.291148 0.0729006
10970 2 0.440796 0.260641 0.0113484
3971 2 0.472807 0.334218 0.0324058
309 2 0.445025 0.331681 0.0739891
3120 1 0.445417 0.332012 -0.000947349
2198 1 0.0513601 0.362757 0.0295454
3424 2 0.010214 0.348695 0.0156682
800 2 0.021596 0.351386 0.0664584
808 2 0.0549052 0.402998 0.0385025
2454 2 0.0657451 0.354304 0.0729651
10172 1 0.0151324 0.389118 0.0375364
4132 2 0.0861199 0.398837 0.0767755
3250 1 0.13456 0.340491 0.0557494
3952 2 0.0958525 0.362706 0.0369223
6874 2 0.142544 0.373369 0.0245801
283 1 0.125708 0.383029 0.0628169
1318 2 0.103466 0.411841 0.0266091
2869 1 0.147365 0.417236 0.0372167
3137 2 0.168851 0.392573 0.0671351
5643 1 0.1747 0.350787 0.0491902
627 1 0.221418 0.379096 0.0144724
1098 1 0.183338 0.389498 0.0242238
10062 2 0.216484 0.39553 0.0570742
810 1 0.227184 0.35068 0.0492951
6627 2 0.196764 0.344039 0.0137142
314 1 0.199691 0.358086 0.0809272
2343 2 0.247698 0.343131 0.0041735
10151 1 0.255729 0.378877 0.0373973
4562 1 0.308078 0.406635 0.00327783
8550 1 0.254698 0.413415 0.0662229
584 2 0.279469 0.378463 0.0716381
2322 2 0.292498 0.36904 0.0178352
791 1 0.320684 0.395992 0.055357
4275 2 0.320777 0.348899 0.0556556
3636 2 0.37324 0.33443 0.0592423
3343 1 0.353302 0.372943 0.0694011
11641 1 0.384239 0.367807 0.0340913
1260 2 0.342808 0.38168 0.022784
10771 2 0.368971 0.407879 0.0530479
7390 2 0.410687 0.371324 0.0758545
10075 1 0.414935 0.402553 0.0420832
7262 1 0.416917 0.34008 0.0440743
10600 2 0.492703 0.341425 0.0819559
10372 2 0.440157 0.41244 8.39791e-05
7011 2 0.421362 0.368412 0.0104747
10129 2 0.452634 0.374657 0.0452228
4462 2 0.484203 0.410584 0.0346217
3614 2 0.452928 0.414176 0.0756442
4337 1 0.496924 0.368693 0.0469203
10060 1 0.467012 0.373963 0.00177429
6475 1 0.0144533 0.471122 0.0295948
2599 1 0.0159715 0.424641 0.0106216
13152 2 0.0154989 0.433018 0.0554351
10810 2 0.0515794 0.454247 0.0196185
13387 1 0.0415439 0.473471 0.0605914
12710 1 0.0774281 0.435507 0.0540568
10589 2 0.081481 0.479554 0.0506403
3895 2 0.13818 0.449307 0.00366424
1022 1 0.0936454 0.454551 0.0084222
1033 1 0.114826 0.451005 0.0450896
2165 2 0.127525 0.489014 0.0277762
3396 1 0.155986 0.456576 0.0507804
240 2 0.133515 0.486241 0.0768577
3324 2 0.128336 0.426802 0.0766587
8970 1 0.166576 0.500516 0.0485678
9938 2 0.237911 0.418423 0.0176632
1329 1 0.172524 0.474628 0.0179162
7408 1 0.225967 0.441836 0.0547429
898 2 0.219467 0.464983 0.0145042
13433 2 0.187194 0.431866 0.0279951
2157 1 0.198132 0.472219 0.0520907
9836 2 0.244888 0.492846 0.0523411
3715 2 0.1834 0.43869 0.0816979
5414 2 0.288781 0.420004 0.0388833
3615 1 0.261249 0.453788 0.028896
1410 2 0.292444 0.475073 0.0474593
204 1 0.303614 0.448569 0.0114845
2908 2 0.262292 0.450639 0.0794251
13335 2 0.29592 0.49176 0.00487441
9877 1 0.328877 0.490774 0.0676736
5968 1 0.332787 0.474974 0.0277115
11183 2 0.328814 0.44319 0.063267
3455 1 0.370515 0.471022 0.00600449
325 2 0.345967 0.433729 0.0157138
10126 2 0.401845 0.445345 0.0205278
3255 1 0.373674 0.451625 0.0514259
431 2 0.407318 0.430877 0.0760201
6557 2 0.366203 0.491393 0.0464469
13357 2 0.424658 0.482737 0.0435084
6601 2 0.47682 0.461119 0.0558233
446 1 0.4385 0.436079 0.0420333
949 2 0.461562 0.458159 0.00732541
148 1 0.439022 0.460609 0.0807589
380 1 0.00849023 0.500395 0.198677
7018 2 0.0192405 0.0229022 0.0916428
4 2 0.0470987 0.0236652 0.137385
199 1 0.0294852 0.059761 0.108828
7120 1 0.0725068 0.0614727 0.121182
9309 1 0.0687758 0.025208 0.0981822
1025 2 0.0314069 0.0651427 0.160279
4590 1 0.0787362 0.0474757 0.163476
7221 1 0.0768091 0.00165614 0.163445
7177 2 0.108792 0.049166 0.0893519
5421 2 0.103205 0.0278736 0.134045
3018 1 0.144228 0.0491766 0.120959
10030 1 0.145101 0.0223595 0.156866
7545 1 0.121822 0.060122 0.158575
9372 1 0.106575 0.00782545 0.0931286
8071 2 0.144208 0.00399277 0.113894
484 1 0.111903 0.0755806 0.12325
2210 2 0.166049 0.0707386 0.154773
3552 1 0.188275 0.00935647 0.0885471
3207 2 0.185364 0.0271345 0.128493
521 2 0.228229 0.0287051 0.103701
987 2 0.198568 0.0703274 0.105726
8440 1 0.235903 0.0285872 0.151918
609 2 0.21371 0.0650526 0.149597
165 2 0.286864 0.0728755 0.0855896
346 1 0.267582 0.0315435 0.0864341
4050 2 0.254803 0.0666773 0.124239
78 2 0.283818 0.0341202 0.154362
3713 1 0.29676 0.0748344 0.126259
2969 2 0.309583 0.0310905 0.108724
3023 2 0.327136 0.0592701 0.152229
7001 1 0.264619 0.013585 0.122769
6678 1 0.327859 0.0152212 0.14653
13 2 0.339519 0.0772691 0.101363
1262 1 0.385233 0.0458231 0.0882277
13274 2 0.363004 0.0159397 0.110467
7325 1 0.403951 0.0413324 0.123662
3579 1 0.365014 0.0567566 0.131196
1049 2 0.399995 0.0683643 0.160108
2937 2 0.367341 0.0234096 0.16166
1630 2 0.415052 0.00321016 0.107582
470 1 0.404367 0.00589335 0.150531
4900 1 0.442554 0.0387832 0.0968774
3966 2 0.440104 0.0722009 0.120017
478 2 0.480646 0.0739178 0.147125
7261 2 0.469472 0.0193332 0.120881
10907 2 0.439395 0.037032 0.155266
6629 1 0.49119 0.0537446 0.105741
2160 1 0.477516 0.012486 0.165742
1826 1 0.442227 0.0772552 0.168678
13289 1 0.0400454 0.0956888 0.0864316
2266 2 0.00299432 0.105159 0.103409
7310 1 0.0422367 0.0935899 0.127292
7666 2 0.0472807 0.133276 0.119871
1254 2 0.0255934 0.12039 0.159513
1607 1 0.0491391 0.157541 0.159239
1996 1 0.00732111 0.163556 0.16176
6278 2 0.0816948 0.0971312 0.0971565
3627 2 0.0804633 0.0901262 0.152454
9511 1 0.083823 0.14392 0.0947393
11573 2 0.0898175 0.132717 0.141586
8083 2 0.152468 0.0891556 0.113024
1674 1 0.116601 0.11402 0.11004
4378 1 0.156843 0.130444 0.125435
9923 2 0.132645 0.109655 0.155191
200 1 0.129701 0.155855 0.160565
8119 2 0.121763 0.154177 0.112394
10352 2 0.222028 0.140982 0.0856942
9537 2 0.169422 0.156228 0.0900609
7377 1 0.17045 0.14837 0.161155
4388 2 0.195095 0.111732 0.143096
9929 1 0.189444 0.115757 0.0982128
1665 1 0.227915 0.100759 0.111835
11701 1 0.196303 0.151425 0.125682
8888 1 0.242293 0.100996 0.151588
11221 2 0.237916 0.13995 0.131658
1325 1 0.257435 0.106221 0.0871968
575 2 0.27707 0.146053 0.0881045
5398 1 0.273811 0.110675 0.124987
621 1 0.308155 0.111209 0.100267
7226 2 0.289514 0.149854 0.141472
4265 2 0.32458 0.151605 0.107097
9510 2 0.320007 0.111344 0.138561
12595 2 0.390056 0.0885817 0.112549
8103 2 0.364879 0.152661 0.135371
10780 1 0.357456 0.118155 0.109233
1959 2 0.365237 0.101001 0.152809
1525 1 0.395405 0.136658 0.111086
140 1 0.411441 0.156461 0.147215
1687 2 0.427381 0.114742 0.143505
392 1 0.426558 0.110503 0.098383
231 1 0.465746 0.111718 0.1226
4559 1 0.465482 0.146695 0.143723
9655 1 0.436908 0.14666 0.114796
11804 1 0.075325 0.172555 0.123579
8508 2 0.0526596 0.211705 0.0993123
4219 2 0.0289137 0.180687 0.126566
527 1 0.0317071 0.224706 0.135827
8494 2 0.0696765 0.203088 0.150134
316 1 0.0102136 0.216564 0.0987219
7460 1 0.0725507 0.245166 0.128358
3632 1 0.0953029 0.181297 0.0854697
1019 1 0.134268 0.191171 0.0951813
7119 1 0.137916 0.232604 0.0886813
1235 1 0.156037 0.175449 0.131408
3276 2 0.100278 0.216816 0.108979
9432 1 0.112278 0.187933 0.14008
7474 1 0.140051 0.214688 0.129595
1482 2 0.104088 0.236846 0.161455
10421 1 0.146228 0.244981 0.158003
11025 1 0.180166 0.244515 0.0852977
1489 2 0.17573 0.204304 0.105482
10306 1 0.178002 0.222359 0.146878
43 1 0.217706 0.180423 0.10808
127 2 0.210585 0.235412 0.11677
646 2 0.203427 0.187446 0.14898
403 1 0.24099 0.211014 0.13861
3171 2 0.220657 0.240844 0.162482
9711 1 0.242754 0.215576 0.0921948
845 1 0.246907 0.17428 0.160666
10523 1 0.248285 0.250994 0.118988
3248 2 0.260822 0.183168 0.116702
2732 2 0.315876 0.235896 0.095051
1568 1 0.277728 0.220011 0.115888
7906 1 0.304995 0.188321 0.1158
3811 2 0.311435 0.228778 0.141084
4485 1 0.285453 0.196147 0.151699
4765 1 0.269453 0.240186 0.154249
1420 2 0.329003 0.181796 0.154183
10171 1 0.350628 0.220492 0.150483
489 2 0.350987 0.200712 0.112896
20 2 0.402778 0.18333 0.110258
6784 1 0.385309 0.226557 0.11472
1070 2 0.386447 0.196746 0.15339
10571 1 0.383224 0.246279 0.156231
2726 2 0.431054 0.22518 0.090461
10038 2 0.48249 0.177385 0.105374
7941 2 0.419452 0.226979 0.138253
11420 1 0.444308 0.184514 0.0972784
10993 2 0.443929 0.183081 0.145605
39 1 0.463453 0.217032 0.125082
7295 2 0.489364 0.225406 0.159484
11448 1 0.487783 0.183756 0.148275
463 2 0.488913 0.248036 0.103684
460 2 0.0108942 0.311635 0.100266
6102 1 0.04844 0.305226 0.13093
4076 2 0.0345954 0.262335 0.102808
4363 2 0.0457105 0.268257 0.152672
1056 1 0.00775921 0.2836 0.136555
11694 2 0.0788749 0.284931 0.102992
1119 2 0.0153551 0.333908 0.14281
13040 1 0.160901 0.248489 0.119774
9942 1 0.0845238 0.326739 0.111838
300 1 0.148992 0.277075 0.084587
5257 2 0.0880547 0.290756 0.14898
357 2 0.117904 0.260278 0.117106
10092 2 0.125946 0.311332 0.0996742
760 2 0.14776 0.290881 0.142185
7904 1 0.115629 0.316783 0.161161
3887 1 0.164219 0.327511 0.122469
3936 2 0.182312 0.285169 0.106259
42 1 0.187427 0.265604 0.145873
7066 1 0.189323 0.308294 0.151063
7888 2 0.223495 0.288091 0.128755
7521 2 0.231655 0.324332 0.163724
4060 2 0.208436 0.333054 0.112699
10681 2 0.260784 0.291825 0.0949385
3810 2 0.319493 0.285898 0.0957949
571 1 0.286566 0.262843 0.119363
867 1 0.31736 0.271582 0.14436
7894 2 0.264417 0.283523 0.154682
4063 1 0.295314 0.303699 0.130539
1057 1 0.25689 0.32436 0.125739
6166 2 0.290915 0.329525 0.0894912
6909 2 0.320838 0.308643 0.164709
3413 2 0.354329 0.260087 0.123691
2456 1 0.343066 0.303555 0.127545
1288 2 0.403427 0.268614 0.121858
7693 2 0.387907 0.317154 0.11982
7936 2 0.375481 0.293509 0.160694
9610 2 0.344408 0.331793 0.0936825
7210 1 0.393853 0.337694 0.162872
11655 1 0.418338 0.26756 0.16303
1739 1 0.418673 0.307512 0.149786
6315 2 0.454008 0.2574 0.139539
10673 1 0.448132 0.263502 0.097213
1530 2 0.440685 0.30095 0.114718
3295 2 0.49344 0.298094 0.115677
1127 1 0.49411 0.267073 0.150584
13108 2 0.0731146 0.337033 0.154764
12895 2 0.0352505 0.393343 0.0926107
1121 1 0.0436069 0.344866 0.111309
857 2 0.0324234 0.378236 0.143058
2946 2 0.079234 0.371412 0.121466
409 1 0.003447 0.36128 0.106848
13491 2 0.0822443 0.413918 0.154208
11461 1 0.0751665 0.414724 0.112242
13122 1 0.108703 0.353347 0.085409
6554 1 0.108638 0.372244 0.158006
4117 2 0.15305 0.358059 0.0945549
670 1 0.124566 0.346299 0.128408
1966 2 0.120539 0.390317 0.11315
7022 1 0.157543 0.411079 0.106446
1064 1 0.124675 0.408865 0.16408
2537 2 0.155651 0.378144 0.142307
3722 1 0.247756 0.339886 0.0876331
2276 1 0.234746 0.378115 0.0894867
7036 2 0.197126 0.390664 0.110687
161 2 0.23472 0.363717 0.130898
4954 1 0.194492 0.351431 0.14873
3891 1 0.233712 0.410777 0.139761
926 2 0.200278 0.398198 0.158794
1623 1 0.298438 0.419453 0.0857194
11004 1 0.273831 0.363219 0.116266
5449 2 0.305495 0.399511 0.128683
868 2 0.311544 0.345716 0.128616
1885 1 0.313959 0.371589 0.0931689
4537 2 0.259973 0.406436 0.109393
10602 2 0.267109 0.385461 0.15994
2155 2 0.279268 0.33918 0.163339
5368 1 0.339871 0.408205 0.0896785
1156 1 0.35671 0.342591 0.140599
7272 1 0.380578 0.397094 0.0947422
8390 2 0.350202 0.378613 0.118689
12397 1 0.380816 0.354738 0.0988615
1185 2 0.403053 0.372681 0.130086
4034 2 0.343098 0.407884 0.164758
13079 2 0.494514 0.390379 0.0877003
1047 2 0.467195 0.339211 0.127073
762 1 0.451406 0.371278 0.0956446
7775 1 0.426 0.342866 0.115007
13281 2 0.463264 0.412142 0.128406
3400 1 0.445825 0.375425 0.136881
10205 1 0.424829 0.409761 0.148163
1938 1 0.424481 0.405328 0.107518
8680 2 0.438191 0.343774 0.166067
10102 2 0.495156 0.378185 0.138419
7187 2 0.0509357 0.44419 0.0895032
6571 1 0.0641939 0.488507 0.0980767
3427 2 0.0384152 0.428443 0.132656
10593 1 0.0359296 0.473522 0.127879
4811 1 0.0755902 0.457175 0.128325
7311 2 0.0175981 0.490179 0.092541
5222 1 0.0265749 0.491409 0.161585
12695 2 0.00453111 0.443502 0.102126
10236 2 0.0602128 0.457596 0.167425
7445 1 0.145116 0.491753 0.120201
13070 1 0.144407 0.452066 0.104067
13126 2 0.0971088 0.458522 0.0927844
1091 1 0.113192 0.431614 0.123885
4971 2 0.115482 0.464256 0.150448
1941 1 0.160157 0.477438 0.157323
1890 2 0.15426 0.430737 0.14225
4511 1 0.104487 0.495342 0.116932
10631 1 0.224958 0.424731 0.0946071
8496 1 0.175158 0.481523 0.0849482
10843 1 0.219648 0.469599 0.0871657
342 1 0.19824 0.430283 0.128947
1553 2 0.186698 0.4683 0.124706
1547 1 0.202896 0.489275 0.159438
4135 2 0.23958 0.45532 0.126337
11087 2 0.247057 0.498202 0.159708
263 2 0.22542 0.446404 0.168222
4713 2 0.497039 0.308761 0.301261
2347 2 0.257345 0.496318 0.103898
7394 1 0.321119 0.48561 0.137412
7687 1 0.285274 0.441342 0.117908
3612 1 0.268691 0.429855 0.151927
6751 2 0.302371 0.475999 0.0971688
1728 1 0.276444 0.474417 0.139348
3947 2 0.306544 0.451615 0.16154
1237 2 0.333711 0.436467 0.11816
6944 2 0.399197 0.478903 0.0829037
3654 2 0.386265 0.419348 0.129859
13445 1 0.369587 0.440018 0.0916164
5730 2 0.351952 0.479886 0.104009
11487 1 0.391234 0.46193 0.121741
5493 2 0.362754 0.45253 0.156178
9614 1 0.402326 0.480633 0.153128
3707 1 0.360643 0.495132 0.14291
3894 2 0.427778 0.499828 0.125351
8165 1 0.476124 0.441855 0.0984186
1242 2 0.431729 0.449463 0.123792
833 2 0.480822 0.456706 0.140536
10880 2 0.468706 0.486953 0.103115
7920 1 0.455917 0.43209 0.167623
8822 1 0.0162329 0.0160428 0.170567
3872 2 0.0536672 0.02944 0.192245
7509 1 0.017096 0.0545605 0.199676
7902 2 0.0447532 0.0475583 0.238466
3573 1 0.0611881 0.0713422 0.195984
5557 2 0.00563856 0.0181072 0.218009
1367 1 0.049118 0.00587204 0.234225
260 1 0.00350014 0.0593517 0.243932
1459 1 0.0871159 0.0384925 0.218351
4934 2 0.10865 0.0247862 0.181953
8507 2 0.149306 0.0445567 0.19403
7481 2 0.12312 0.0605881 0.237735
8850 2 0.102588 0.0757567 0.195225
4425 2 0.126068 0.010337 0.229974
7605 1 0.000398078 0.401804 0.123363
7678 2 0.176405 0.0605545 0.236619
12600 1 0.186337 0.0297495 0.172235
5696 2 0.181916 0.0145916 0.213859
9571 1 0.189104 0.0682138 0.197113
291 2 0.220643 0.0390402 0.197037
4255 1 0.216929 0.0319393 0.240868
4719 2 0.220009 0.0779842 0.238922
3234 1 0.251639 0.0593504 0.216999
1217 1 0.251655 0.0644689 0.172336
718 2 0.262749 0.0211552 0.237998
4495 1 0.258626 0.0238501 0.19074
3692 2 0.292955 0.05192 0.200528
10313 1 0.300861 0.0416159 0.240718
3781 1 0.332261 0.0364686 0.187489
11921 2 0.330889 0.015171 0.225551
8668 2 0.340885 0.0619846 0.220706
9134 1 0.367665 0.0265125 0.207025
4587 1 0.402406 0.0356522 0.185822
988 2 0.389821 0.0659442 0.21545
10522 1 0.362833 0.0622326 0.179696
25 2 0.41037 0.0182081 0.228386
5018 1 0.369964 0.0406672 0.244273
11339 2 0.436769 0.0546361 0.207631
5558 1 0.474122 0.0511228 0.181428
10243 1 0.479332 0.0479029 0.224761
1559 2 0.464525 0.00879457 0.20664
1274 1 0.491491 0.00900015 0.23821
749 1 0.449382 0.0297305 0.247358
3998 2 0.499883 0.0799929 0.244014
11582 1 0.454242 0.0704475 0.249793
8213 2 0.0763339 0.0830748 0.235501
1192 2 0.0115093 0.130973 0.242979
5780 2 0.0288904 0.0966203 0.208094
11473 2 0.0685793 0.118888 0.190527
4569 1 0.0560234 0.123749 0.232178
1785 2 0.0362628 0.157762 0.201573
1427 1 0.0346869 0.0908716 0.251341
744 2 0.0827923 0.156598 0.22115
786 2 0.147711 0.0915875 0.202276
1090 1 0.109963 0.128778 0.18781
1394 2 0.11197 0.116122 0.228109
4504 2 0.155401 0.139171 0.204567
887 1 0.124309 0.152178 0.243662
17 2 0.0863729 0.166364 0.174607
7358 1 0.178073 0.108583 0.180809
1014 2 0.22049 0.0933843 0.190374
219 1 0.18982 0.107683 0.220053
1297 2 0.210601 0.146887 0.179293
384 1 0.196029 0.152671 0.222548
4836 1 0.227986 0.126201 0.216726
6336 2 0.232064 0.163545 0.24465
8664 1 0.303067 0.0852569 0.223409
6321 2 0.286842 0.0958418 0.168252
1366 1 0.327572 0.0894722 0.184431
819 2 0.257784 0.135242 0.178778
474 2 0.264098 0.0984998 0.212868
7855 1 0.29915 0.125021 0.202766
5765 1 0.269086 0.143382 0.224672
1169 2 0.318357 0.156525 0.237196
1754 2 0.29099 0.167797 0.189185
9337 2 0.333912 0.135109 0.178824
4304 2 0.338084 0.112724 0.22683
7437 2 0.390989 0.135966 0.18064
11500 1 0.401311 0.150202 0.218945
1233 1 0.366916 0.102917 0.197559
11684 1 0.361607 0.147103 0.210758
1080 2 0.38831 0.114404 0.235489
629 2 0.414739 0.100043 0.190091
10646 1 0.468041 0.111543 0.169029
922 1 0.423456 0.0899254 0.231501
12135 2 0.465025 0.0929503 0.205086
8201 2 0.441803 0.142353 0.182585
8455 1 0.433772 0.12562 0.221181
9080 1 0.47415 0.141311 0.212447
989 2 0.496705 0.147189 0.174228
4950 2 0.464935 0.115908 0.248674
6732 1 0.441725 0.16913 0.222099
2327 2 0.00935303 0.242466 0.171377
5163 1 0.00780529 0.235601 0.214367
4223 2 0.0294012 0.200416 0.177361
6768 1 0.0268934 0.196717 0.223466
1720 1 0.0556691 0.234226 0.173616
7270 1 0.0678908 0.19751 0.198255
8682 2 0.0497741 0.235597 0.215328
11160 1 0.0655581 0.201585 0.240341
8207 1 0.124784 0.16703 0.202288
6749 2 0.145011 0.198244 0.168787
10 2 0.0967006 0.232805 0.213492
11123 1 0.105114 0.192481 0.227399
6905 1 0.107434 0.201505 0.185737
10039 2 0.146207 0.197514 0.222213
6348 1 0.138335 0.234826 0.198603
12769 2 0.136826 0.240599 0.247028
958 1 0.176301 0.176767 0.191838
7859 1 0.175098 0.237738 0.225508
420 1 0.17788 0.218338 0.188073
5412 1 0.217376 0.19541 0.189751
1385 2 0.194919 0.197412 0.22574
3770 1 0.238218 0.206409 0.229264
1425 2 0.214395 0.243035 0.21048
483 1 0.242679 0.168862 0.20401
7937 2 0.280536 0.188632 0.229289
1203 2 0.257943 0.208527 0.185737
8541 1 0.279629 0.230022 0.215173
1379 2 0.312836 0.21615 0.186516
3384 2 0.252898 0.246866 0.240892
1643 2 0.33051 0.205135 0.236488
11270 1 0.332253 0.177278 0.20062
454 1 0.365532 0.170583 0.178811
4489 1 0.368632 0.188609 0.219836
1606 2 0.361487 0.217089 0.192814
8151 2 0.400371 0.227743 0.226539
1423 1 0.404757 0.184949 0.235391
479 1 0.409591 0.224663 0.182515
8285 2 0.411687 0.182614 0.19276
6404 2 0.355411 0.249621 0.23516
3860 2 0.138427 0.496666 0.278964
2400 1 0.449084 0.216557 0.170505
7946 2 0.468315 0.185691 0.191616
1061 1 0.439674 0.209939 0.214271
2394 1 0.442798 0.24068 0.23894
8028 1 0.482755 0.223499 0.206897
589 2 0.472701 0.205928 0.247096
367 2 0.442068 0.250528 0.196134
6564 1 0.0530228 0.303161 0.175821
1168 1 0.0334482 0.268547 0.199565
1513 2 0.0614944 0.291435 0.223039
7030 2 0.00846704 0.298926 0.179451
1344 1 0.0235969 0.263022 0.244139
4568 1 0.0236076 0.305737 0.223475
8297 1 0.0778544 0.266393 0.189406
139 1 0.0631688 0.333274 0.207749
863 1 0.0927032 0.305676 0.195833
1082 2 0.122476 0.275542 0.184564
7407 2 0.106902 0.277481 0.230785
812 2 0.133209 0.316243 0.211967
7942 1 0.096661 0.327239 0.236034
1543 1 0.153159 0.27606 0.221324
7923 1 0.162866 0.300514 0.185778
1251 1 0.170761 0.311778 0.237357
8984 2 0.173719 0.260612 0.186485
599 1 0.19385 0.285052 0.215448
788 2 0.242766 0.292722 0.207422
807 1 0.2123 0.281529 0.177288
9888 1 0.212976 0.320685 0.233974
9037 1 0.217246 0.272996 0.243775
4266 2 0.198024 0.326649 0.194674
794 1 0.317383 0.251043 0.218212
3356 1 0.252049 0.253315 0.190916
7791 2 0.294162 0.262242 0.182427
1294 1 0.282498 0.30563 0.191597
11495 1 0.280837 0.274133 0.2227
6775 2 0.321139 0.294523 0.213395
10296 1 0.282827 0.315491 0.23308
8357 2 0.345214 0.258994 0.179578
10623 1 0.390895 0.258414 0.194319
10132 2 0.369981 0.289308 0.212813
4377 1 0.394441 0.308074 0.241873
11790 2 0.353984 0.331374 0.185217
774 1 0.412115 0.269628 0.227976
8504 1 0.34968 0.290976 0.248909
1633 2 0.416634 0.29895 0.193888
952 2 0.458009 0.297268 0.167421
7491 2 0.482954 0.259989 0.241454
3238 2 0.486083 0.265709 0.192301
4176 1 0.451433 0.286069 0.22218
10551 1 0.454667 0.326335 0.201136
8401 2 0.489571 0.309747 0.217066
1645 2 0.435973 0.324012 0.241402
1115 1 0.0141245 0.376682 0.181522
8687 1 0.0314803 0.33768 0.183113
385 2 0.0586814 0.376303 0.18416
6530 1 0.0425607 0.397798 0.24035
4231 2 0.0260889 0.359053 0.221567
4510 2 0.0137134 0.408443 0.211551
7356 2 0.0757629 0.369587 0.233184
1108 1 0.0371843 0.415566 0.173161
4946 2 0.152504 0.338173 0.166767
5242 1 0.139766 0.375015 0.188888
1479 2 0.102219 0.349477 0.192646
10415 1 0.0981497 0.406509 0.234094
6818 2 0.123786 0.373654 0.229959
1597 1 0.0972963 0.393888 0.194231
6876 1 0.12925 0.414086 0.207295
1532 1 0.16343 0.406787 0.181077
10290 1 0.164764 0.392607 0.223482
5187 2 0.166328 0.34975 0.219892
7801 1 0.18328 0.370582 0.186762
101 1 0.20913 0.360717 0.219005
2695 1 0.226951 0.367704 0.178294
7626 1 0.238831 0.409219 0.184093
1546 2 0.242791 0.38763 0.220898
693 2 0.200043 0.41246 0.208137
7511 2 0.252179 0.340837 0.208362
4573 2 0.318932 0.365877 0.168055
396 1 0.28241 0.376678 0.197399
1795 2 0.31213 0.343023 0.208864
13074 1 0.279638 0.40151 0.235615
9438 2 0.317803 0.395679 0.215541
881 1 0.300936 0.40871 0.174289
1648 2 0.283823 0.357873 0.243413
1465 1 0.326937 0.365834 0.2456
12546 1 0.39084 0.409655 0.170515
520 2 0.358414 0.335342 0.232415
12706 2 0.37287 0.373518 0.167959
8710 1 0.352791 0.37142 0.205301
9415 2 0.402064 0.341621 0.207577
8135 1 0.396323 0.382972 0.2071
11394 2 0.368765 0.384055 0.244085
4896 1 0.403755 0.411373 0.24019
7494 1 0.416594 0.37688 0.172743
12853 1 0.482977 0.349094 0.169424
10056 2 0.463541 0.391573 0.177424
9977 1 0.438653 0.365619 0.205018
12003 1 0.457763 0.397064 0.228405
7007 2 0.484795 0.363544 0.211932
1102 2 0.427329 0.373177 0.243721
1324 2 0.428593 0.413722 0.20149
3144 2 0.080731 0.498723 -0.000255151
4911 2 0.440764 0.434662 0.471203
6528 2 0.0233892 0.455015 0.194448
13071 1 0.0656754 0.463878 0.212317
2970 2 0.0659829 0.419304 0.209099
4299 2 0.0281631 0.486979 0.232845
7644 2 0.0401007 0.442705 0.24634
3909 2 0.0788799 0.488307 0.246647
10578 2 0.38448 0.499569 0.453847
5586 1 0.0827757 0.441031 0.249662
790 1 0.12049 0.500898 0.23144
7571 2 0.113822 0.453531 0.220765
6616 1 0.099588 0.43925 0.184347
8512 1 0.142372 0.445655 0.181415
834 2 0.158218 0.47255 0.242154
9357 1 0.142178 0.484446 0.197593
7344 2 0.0977202 0.488183 0.194085
11504 1 0.163073 0.438229 0.216072
1234 2 0.136737 0.420262 0.250331
1084 1 0.183292 0.442558 0.17109
7556 2 0.18535 0.474417 0.19742
1970 1 0.232665 0.478468 0.201063
3433 1 0.199107 0.453103 0.234494
4622 2 0.236755 0.440255 0.215255
1036 2 0.215088 0.494363 0.235571
11251 1 0.294929 0.495768 0.170478
4151 2 0.276029 0.426675 0.200872
1784 1 0.266175 0.4625 0.18026
631 1 0.267605 0.467118 0.2277
10181 1 0.301038 0.469561 0.203002
4800 1 0.296695 0.489439 0.240276
1997 2 0.30498 0.44313 0.239078
4762 2 0.33222 0.441005 0.198402
13339 1 0.337341 0.484321 0.178033
9964 2 0.370858 0.416988 0.206732
508 2 0.411581 0.446796 0.174504
120 2 0.34102 0.480897 0.221743
10800 1 0.375483 0.46246 0.199566
7774 2 0.402341 0.452199 0.227829
3468 1 0.412651 0.484109 0.197701
4652 1 0.380621 0.496324 0.224591
4637 2 0.352271 0.435721 0.248366
7053 2 0.450347 0.480196 0.17141
12911 1 0.441675 0.43505 0.237274
7846 2 0.47178 0.446698 0.205985
3786 1 0.443153 0.472895 0.225843
1444 1 0.489414 0.471029 0.238989
10383 1 0.480571 0.49272 0.20375
738 2 0.0532656 0.0295479 0.285568
13245 1 0.0176095 0.0189313 0.258309
5361 1 0.0264608 0.0601097 0.277604
1220 1 0.0502894 0.0686424 0.322045
8467 2 0.0204405 0.039285 0.321686
258 2 0.0740996 0.0351068 0.330743
565 2 0.0688362 0.0799187 0.285218
7528 1 0.0110521 0.00307397 0.300638
3257 2 0.0836484 0.00336022 0.256252
3470 1 0.0873197 0.0445535 0.261585
7275 1 0.0938288 0.0129078 0.296045
7914 1 0.122579 0.0253043 0.26735
10986 2 0.111714 0.0569894 0.295817
1961 1 0.140203 0.0185153 0.302746
4442 1 0.152329 0.0604059 0.274021
742 2 0.16156 0.0512471 0.315267
910 2 0.165264 0.0185969 0.260064
3964 1 0.24378 0.0448882 0.273217
5751 2 0.187889 0.00420642 0.309465
2099 2 0.201497 0.049065 0.285663
7994 2 0.237081 0.0227722 0.322546