ITEM: TIMESTEP
10200000
ITEM: NUMBER OF ATOMS
13500
ITEM: BOX BOUNDS pp pp pp
9.8067617883565106e-01 5.9019323821143892e+01
9.8067617883565106e-01 5.9019323821143892e+01
9.8067617883565106e-01 5.9019323821143892e+01
ITEM: ATOMS id type xs ys zs
9888 1 0.0646526 0.052054 0.0211215
3549 1 0.0344568 0.0390565 0.0499722
7032 2 0.0739568 0.0532182 0.0644327
7941 2 0.0364318 0.014641 0.012115
651 1 0.0251066 0.0610019 0.0145275
4375 2 0.0779374 0.00947192 0.0398708
210 1 0.0505087 0.017426 0.0789385
10203 2 0.110092 0.0568342 0.0265006
8894 2 0.122521 0.0341813 0.063166
5683 1 0.119017 0.0121099 0.0228086
9609 1 0.153123 0.0403378 0.0246521
454 1 0.150951 0.0747123 0.048845
438 1 0.110128 0.081526 0.0665041
7357 1 0.155769 0.00248069 0.0037546
9301 2 0.156915 0.00147799 0.0472402
10012 2 0.144769 0.0838082 0.000460904
10732 2 0.17468 0.0424045 0.066667
9677 1 0.216598 0.046539 0.0538262
11957 2 0.192075 0.0688333 0.0258614
2709 1 0.194051 0.023532 0.023746
4090 2 0.232081 0.00533225 0.0196106
7465 2 0.245128 0.053947 0.0233455
6230 2 0.242089 0.0764439 0.0740693
4427 2 0.209017 0.00067019 0.0589264
11766 2 0.0404655 0.0838097 0.0477468
9476 1 0.03895 0.135819 0.0535911
6925 2 0.0597382 0.132955 0.0161104
339 1 0.022016 0.106802 0.0149381
2590 2 0.0773483 0.114476 0.0663777
4523 2 0.0759609 0.162864 0.0690736
4168 1 0.00367186 0.132496 0.0759515
11036 2 0.00253005 0.144731 0.0313416
8108 1 0.0841483 0.0899355 0.0308221
6932 1 0.00126017 0.101215 0.0484772
7206 1 0.05666 0.0909371 -0.001932
643 1 0.122303 0.104292 0.0351974
12950 1 0.113668 0.133989 0.0657374
927 1 0.143108 0.143102 0.038459
3655 2 0.148171 0.112476 0.0708293
12907 1 0.101197 0.140719 0.028262
6152 1 0.135285 0.131354 -0.00120787
12694 1 0.167712 0.11165 0.025643
13204 1 0.170297 0.153572 0.012145
10312 1 0.23044 0.0937425 0.0342545
9886 2 0.191188 0.0982131 0.0614958
8582 2 0.185571 0.151357 0.052485
7400 2 0.208651 0.124105 0.0128011
11739 2 0.227474 0.132902 0.0619987
10134 1 0.228942 0.163991 0.0251986
9319 1 0.0394654 0.170771 0.0268124
605 2 0.0232741 0.176934 0.0692954
6457 2 0.0167514 0.210567 0.0316719
56 1 0.0560472 0.200032 0.0498528
6116 2 0.0564992 0.240799 0.0374187
8904 1 0.0267545 0.222083 0.0728831
3406 1 0.0518685 0.206606 0.00553818
9307 2 0.0816754 0.180787 0.0201211
631 1 0.117437 0.175241 0.0522266
877 1 0.158488 0.182759 0.0404483
10593 2 0.140141 0.216771 0.0224316
2637 2 0.0952924 0.21642 0.0568166
26 2 0.141793 0.210755 0.0751498
2687 2 0.128218 0.173515 0.00762795
13443 1 0.175828 0.233888 -1.81054e-05
10427 1 0.174022 0.227096 0.050268
1294 2 0.232317 0.181199 0.0637807
2506 2 0.196555 0.199238 0.0244823
2398 2 0.216353 0.230237 0.0650228
4229 1 0.187703 0.191892 0.0709872
1618 1 0.244231 0.206134 0.0320389
8046 1 0.0164538 0.261421 0.0469537
7622 2 0.0607173 0.293901 0.0444491
4171 2 0.0180193 0.302449 0.0737106
13159 1 0.041377 0.323431 0.0155508
9997 1 0.0387603 0.27472 0.0100516
6702 2 0.00633 0.298444 0.0221506
8251 1 0.080878 0.285987 0.00445834
12263 2 0.126727 0.297801 0.00306006
9084 2 0.0880467 0.329983 0.0164517
945 1 0.0915363 0.26571 0.0663719
4319 2 0.134499 0.257394 0.0636934
10 2 0.105804 0.254568 0.0244922
7893 1 0.105096 0.295586 0.0398256
6040 2 0.155942 0.302301 0.0444972
6992 1 0.158105 0.260426 0.0256804
3999 2 0.103302 0.326068 0.0678633
7779 2 0.137415 0.298143 0.0874041
5127 2 0.206153 0.25462 0.0253139
1075 2 0.181749 0.266546 0.0695498
3373 2 0.229019 0.283068 0.0597507
1495 1 0.196931 0.29958 0.0299241
5353 1 0.23399 0.32084 0.0400396
513 2 0.193956 0.317248 0.0777032
6303 2 0.229999 0.291429 0.00097865
2554 2 0.208116 0.335975 0.00703781
245 2 0.0049042 0.348892 0.0236223
3991 2 0.0468021 0.343636 0.055516
12888 1 0.0489165 0.368523 0.0141876
9222 1 0.0293643 0.384685 0.0481322
2728 2 0.0699018 0.390415 0.065951
7994 2 0.0125654 0.394678 0.0098512
9535 1 0.0031793 0.356391 0.0708514
6753 2 0.0555295 0.414384 0.0236273
8067 2 0.00527199 0.403646 0.0799545
3911 1 0.132244 0.334557 0.0296017
11419 1 0.0833203 0.362708 0.0399807
7264 2 0.152963 0.347154 0.0695103
2436 2 0.12562 0.375504 0.0375782
140 1 0.107228 0.371155 0.0750929
11414 1 0.0967343 0.406208 0.0375197
7915 2 0.147866 0.394747 0.0796059
10715 2 0.161827 0.364082 0.00615948
4776 1 0.233743 0.333302 0.0822433
5857 1 0.176519 0.337569 0.0378542
7131 1 0.171867 0.383049 0.0432704
4238 1 0.238784 0.366163 0.0192656
11729 2 0.211287 0.357801 0.0520696
7268 2 0.215602 0.406269 0.0396601
2463 1 0.201565 0.377281 0.00883452
9035 1 0.24443 0.385345 0.0655119
396 1 0.188443 0.387113 0.0791412
10052 1 0.0423137 0.422671 0.067604
12722 1 0.0375692 0.455068 0.0341308
1006 2 0.0777353 0.448921 0.0528991
1082 1 0.0725382 0.471923 0.0114802
556 1 0.0722361 0.488293 0.0755029
12908 2 0.0387007 0.498306 0.0374347
2874 2 0.000622481 0.430952 0.039759
4502 1 0.0226081 0.436154 -0.00158446
13382 2 0.131906 0.427133 0.046269
8336 1 0.114255 0.467059 0.0339678
1610 2 0.161032 0.466749 0.0525656
3431 2 0.143474 0.494695 0.0140362
9578 2 0.1115 0.471795 0.0801803
13093 2 0.100837 0.436799 0.00626188
10749 1 0.142612 0.450387 0.00719433
4431 2 0.17411 0.419345 0.0201253
8436 1 0.177021 0.42418 0.0633365
5781 1 0.207833 0.496715 0.0278134
6434 2 0.242246 0.477945 0.0535217
11537 1 0.200644 0.489504 0.072367
7769 2 0.204663 0.45325 0.0459758
9814 1 0.18208 0.466596 0.00747525
8652 1 0.244643 0.436997 0.0208193
5476 1 0.0312341 0.0635224 0.0877784
9488 1 0.0321624 0.0386757 0.143096
11870 2 0.0647319 0.0441099 0.114391
7405 2 0.0167795 0.0272142 0.104248
8332 2 0.0717374 0.0161297 0.157998
10399 1 0.0733165 0.0817053 0.0938588
8903 1 0.0633779 0.0572093 0.162434
2521 1 0.00287133 0.0678622 0.127926
11584 2 0.0931373 0.0115169 0.094965
9627 1 0.14869 0.0717478 0.0909276
3698 1 0.107923 0.0560172 0.101839
1211 2 0.135368 0.0641787 0.133453
2057 1 0.141694 0.0319126 0.102745
13318 1 0.098474 0.0434496 0.139697
1631 1 0.153549 0.0330508 0.154021
10157 2 0.122329 0.0104397 0.136108
3665 1 0.18077 0.0066671 0.0915644
2981 2 0.181417 0.0455684 0.117781
8085 2 0.22527 0.026458 0.0958136
3939 1 0.216657 0.0200826 0.138701
11504 2 0.225785 0.0665265 0.132001
6760 1 0.202959 0.0686194 0.0894621
11728 1 0.183267 0.0766228 0.151961
10161 1 0.0374155 0.104554 0.0863374
10552 2 0.0395587 0.0884177 0.128647
5456 2 0.00810102 0.109824 0.160329
10663 2 0.0414004 0.14439 0.101343
5048 1 0.0560335 0.127756 0.146998
490 2 0.0273072 0.157505 0.146103
2869 1 0.0737337 0.120132 0.110871
6431 1 0.00639524 0.120093 0.118368
11423 2 0.146938 0.163642 0.0825651
9479 2 0.0882664 0.0869155 0.140369
952 1 0.105469 0.14806 0.10299
12871 2 0.114421 0.101558 0.103602
2202 1 0.140984 0.131854 0.118
7079 2 0.107039 0.132704 0.147525
6146 1 0.141664 0.102766 0.148961
2912 1 0.150113 0.140468 0.161238
2946 2 0.171333 0.0958104 0.117231
8527 1 0.178006 0.132714 0.0924619
2409 2 0.21545 0.10976 0.10527
9224 1 0.1895 0.117629 0.148606
12818 1 0.230158 0.108172 0.145069
6253 2 0.17885 0.155263 0.128325
4358 2 0.225593 0.155395 0.1425
8518 1 0.213034 0.156002 0.0964159
4625 2 0.0750441 0.170152 0.124336
6406 2 0.060685 0.209736 0.0979247
2422 2 0.0234435 0.234359 0.123882
9668 1 0.0283304 0.192195 0.115151
1886 2 0.0536041 0.204409 0.153391
11219 1 0.0663711 0.244 0.125764
3118 2 0.127806 0.172663 0.129206
2944 1 0.094179 0.210155 0.131908
4777 1 0.106509 0.18923 0.0937132
12591 2 0.105149 0.235139 0.100649
8268 2 0.14 0.219943 0.135221
4114 1 0.165229 0.191216 0.109465
10697 1 0.103889 0.191063 0.164302
9089 2 0.0865314 0.233834 0.170257
8838 2 0.173651 0.233409 0.101007
6788 2 0.21009 0.198865 0.108163
11631 1 0.234126 0.213883 0.138459
9718 2 0.189432 0.198169 0.150375
3864 2 0.197657 0.243551 0.140946
6135 2 0.0513574 0.258145 0.0829147
10267 1 0.0465952 0.251492 0.161263
12981 1 0.0639991 0.307226 0.0863048
11455 2 0.0393731 0.283867 0.117101
1284 1 0.0589295 0.319301 0.13287
8720 2 0.0179615 0.329143 0.140359
11688 2 0.0785925 0.282881 0.150641
8491 1 0.0314643 0.334861 0.0984689
1850 1 0.111512 0.25314 0.140852
1439 2 0.0933359 0.278336 0.104672
1694 1 0.100278 0.317428 0.116141
5312 1 0.1413 0.261302 0.110254
12830 2 0.133201 0.297317 0.136605
2003 2 0.155978 0.263186 0.156883
11872 1 0.163787 0.324038 0.112008
10078 2 0.107106 0.323279 0.165192
13028 1 0.216592 0.256182 0.100638
6002 2 0.182145 0.284764 0.11462
7449 1 0.21297 0.287331 0.141731
4870 2 0.181215 0.318013 0.153808
364 2 0.232875 0.295979 0.106695
9109 2 0.234269 0.320274 0.162814
6106 2 0.24604 0.256427 0.132451
12512 1 0.209079 0.329936 0.121103
7555 2 0.00386706 0.375195 0.120937
2626 1 0.0368669 0.375355 0.0865793
12488 2 0.0732575 0.349713 0.0992721
7809 1 0.0292498 0.395369 0.151221
6171 2 0.054331 0.405779 0.111599
6347 1 0.0457201 0.364398 0.127709
13064 1 0.0758033 0.387384 0.150922
8396 1 0.0870607 0.350881 0.139491
4581 1 0.143012 0.341343 0.145716
5072 1 0.0933745 0.384221 0.113641
6038 2 0.125718 0.352723 0.109134
3421 1 0.13557 0.396907 0.121048
7798 2 0.118117 0.377284 0.156618
9622 2 0.174084 0.363311 0.116526
9143 2 0.225347 0.369551 0.102558
7070 1 0.228823 0.408395 0.132825
3780 2 0.213729 0.362729 0.151538
626 2 0.182543 0.411121 0.118599
277 2 0.196656 0.411969 0.164714
12105 1 0.251259 0.336516 0.123066
13356 2 0.0340188 0.460844 0.0836554
1 2 0.0115104 0.429646 0.125655
9780 1 0.0391344 0.46401 0.133718
6851 2 0.0738219 0.453448 0.110469
4491 2 0.0576309 0.426523 0.155381
2717 1 0.0767725 0.475414 0.150236
11133 2 0.145367 0.418982 0.162415
10762 1 0.155343 0.497227 0.145691
6621 2 0.103555 0.418837 0.0857385
13253 2 0.151609 0.493439 0.0983271
9171 2 0.101151 0.421937 0.138846
12312 2 0.144872 0.440108 0.0974912
12646 2 0.120716 0.468382 0.133816
8767 1 0.0938016 0.49765 0.11314
9784 2 0.21874 0.419097 0.0888895
13139 2 0.172261 0.458447 0.142412
13473 1 0.229843 0.463278 0.0944455
7504 1 0.188105 0.454397 0.0938962
9985 1 0.210803 0.447453 0.128806
864 1 0.205055 0.482411 0.162175
3109 1 0.241382 0.480831 0.132066
10231 2 0.200616 0.492104 0.118461
11477 2 0.230254 0.447379 0.167275
10867 2 0.0132043 0.0620288 0.170499
10773 2 0.00698365 0.0424526 0.216448
5315 2 0.0466999 0.011108 0.228141
7727 1 0.0373301 0.0262831 0.184423
9959 2 0.0533775 0.0653653 0.205412
13248 1 0.0566198 0.0485245 0.244411
5318 1 0.0793315 0.0297964 0.202707
4692 2 0.0265855 0.0770512 0.248598
8747 1 0.0872665 0.00616453 0.242594
10677 1 0.149829 0.0684648 0.173785
2501 2 0.104834 0.062474 0.182136
4158 1 0.116656 0.0273319 0.219023
12446 2 0.153953 0.0315097 0.199204
4703 1 0.112498 0.0204356 0.176274
2596 2 0.132468 0.0705843 0.218894
11390 1 0.146803 0.0373398 0.245589
807 1 0.0914209 0.0761109 0.222097
12843 2 0.195223 0.037097 0.172118
7085 1 0.179373 0.0660493 0.208253
10573 1 0.224947 0.03275 0.204469
5735 2 0.214705 0.0695423 0.22947
6593 2 0.188895 0.0244501 0.235367
13404 1 0.234989 0.030498 0.244002
3554 2 0.248088 0.0442106 0.167539
2785 1 0.0468415 0.0943013 0.170947
3415 1 0.0156723 0.0890192 0.203509
145 2 0.0357111 0.137012 0.194098
5597 1 0.0548633 0.109237 0.224648
501 1 0.0400851 0.148781 0.23909
3304 1 0.0783933 0.148903 0.217852
5654 2 0.00626665 0.120902 0.22845
4817 2 0.0708741 0.162783 0.172151
12441 2 0.0799984 0.110442 0.187152
4955 1 0.126539 0.108035 0.187127
9502 2 0.106414 0.117554 0.224017
2902 2 0.114546 0.154877 0.189653
12322 1 0.154046 0.102285 0.230308
7104 2 0.147711 0.142651 0.21662
13301 1 0.1131 0.165437 0.236471
1918 2 0.216415 0.0820527 0.182068
12298 2 0.169313 0.105403 0.186084
7163 2 0.190219 0.154979 0.182124
11654 2 0.19904 0.114386 0.22094
10660 1 0.219576 0.126602 0.180022
6654 2 0.228223 0.152757 0.220995
11315 1 0.242304 0.1037 0.240145
5960 1 0.184343 0.150938 0.234362
5008 2 0.0134125 0.226332 0.171044
423 2 0.0480179 0.182209 0.213482
3127 1 0.0197704 0.183642 0.18114
8679 2 0.0143552 0.213657 0.218553
2421 1 0.0534929 0.22478 0.19665
239 1 0.0572871 0.216271 0.242374
752 2 0.0797447 0.251799 0.249895
3188 2 0.1512 0.183144 0.172148
12667 2 0.0913572 0.19536 0.208512
2125 2 0.130869 0.224455 0.184348
246 2 0.150635 0.191083 0.221474
483 1 0.133816 0.234776 0.226791
10996 1 0.0930669 0.236895 0.213881
8901 2 0.183761 0.226076 0.192437
4241 1 0.193399 0.188685 0.21143
10637 1 0.219095 0.218215 0.226767
1493 2 0.228806 0.195796 0.183222
809 1 0.22525 0.239974 0.176659
9741 2 0.175698 0.235313 0.244912
12601 2 0.0294461 0.293037 0.167975
1137 2 0.0308946 0.258649 0.238534
11707 1 0.024134 0.261444 0.198109
10101 2 0.065604 0.269709 0.201938
2617 1 0.0381614 0.299127 0.215761
12267 1 0.0670556 0.311636 0.187696
5954 1 0.0183233 0.327542 0.189853
2989 2 0.0712649 0.301917 0.244356
2457 2 0.11545 0.273823 0.183435
7388 2 0.103959 0.321241 0.21353
13300 1 0.149758 0.305861 0.181423
6187 2 0.147881 0.315458 0.225207
8125 2 0.113701 0.275206 0.232937
1384 2 0.159464 0.270497 0.210257
2404 2 0.215182 0.260997 0.223552
9738 2 0.197952 0.280201 0.181958
11718 1 0.189153 0.295638 0.227623
11021 1 0.226692 0.305641 0.205503
10670 2 0.0519527 0.348143 0.166404
3936 2 0.00688626 0.341109 0.231792
9604 2 0.0546545 0.343309 0.22021
8417 2 0.0549975 0.390059 0.193019
5405 1 0.02528 0.377041 0.220305
11038 1 0.0647258 0.387733 0.235835
9762 2 0.0109306 0.367582 0.17736
7239 1 0.124386 0.359388 0.228692
4509 2 0.0933514 0.364263 0.195247
9940 1 0.139292 0.344499 0.191239
2763 1 0.135603 0.388454 0.198737
9587 2 0.103533 0.400796 0.226824
12295 1 0.149458 0.407371 0.238918
8317 1 0.0989885 0.408929 0.183013
9275 2 0.164995 0.36824 0.222441
2629 2 0.186641 0.32761 0.198396
5046 2 0.167604 0.371463 0.170305
11023 1 0.195937 0.34555 0.239678
12474 1 0.17447 0.408621 0.204122
6034 2 0.231255 0.349092 0.209746
6407 1 0.201863 0.377988 0.195639
10895 2 0.202521 0.394307 0.236971
11047 2 0.236749 0.393159 0.177707
2316 1 0.24357 0.390049 0.223554
9831 1 0.233875 0.359932 0.251953
768 2 0.0325154 0.418278 0.238068
2000 2 0.0159284 0.419455 0.192124
7194 1 0.0667368 0.426906 0.208435
3573 2 0.0438617 0.460373 0.181653
507 2 0.059527 0.463561 0.226651
3201 2 0.00905472 0.460234 0.220539
3339 1 0.0704482 0.494872 0.19111
3018 1 0.0745829 0.429729 0.251888
7662 1 0.13841 0.462098 0.172778
1797 2 0.102439 0.489201 0.22076
11789 2 0.137557 0.431677 0.205417
11570 1 0.103781 0.445471 0.228233
8211 2 0.0973854 0.453461 0.183089
7436 1 0.139325 0.473571 0.213596
6731 1 0.141957 0.452718 0.247962
24 2 0.166808 0.493072 0.185993
1710 1 0.215193 0.422303 0.202958
11134 1 0.179018 0.447207 0.184728
5016 2 0.181603 0.442244 0.234301
1679 2 0.213013 0.46922 0.207174
7327 2 0.237009 0.443507 0.243796
12362 2 0.175756 0.494633 0.231144
12051 1 0.21813 0.490713 0.246906
8711 2 0.00191612 0.0425047 0.310173
12719 2 0.0321783 0.00124805 0.296649
6004 2 0.0465301 0.0526264 0.29497
7478 1 0.0609466 0.0189717 0.272932
12064 1 0.0213933 0.0309011 0.26165
8338 2 0.0743677 0.0183948 0.321311
10546 2 0.0986356 0.0452596 0.252277
7353 1 0.0877875 0.0634625 0.292106
6652 1 0.0997456 0.0228531 0.287677
1045 2 0.13506 0.0490398 0.290112
6762 1 0.15598 0.0248619 0.317929
403 1 0.110956 0.0445612 0.32599
4535 2 0.131472 0.0037283 0.267121
379 2 0.170844 0.068611 0.257183
462 1 0.16989 0.0258544 0.278875
6006 1 0.208942 0.0436801 0.272486
3491 2 0.205951 0.0222157 0.316236
656 2 0.184136 0.0636313 0.306976
1904 1 0.228999 0.0624784 0.304543
13138 1 0.245953 0.0649097 0.262296
3784 1 0.0179396 0.0872412 0.295425
4150 2 0.0709396 0.0887512 0.259667
4383 1 0.00561992 0.147672 0.26494
10006 2 0.0201154 0.130032 0.303729
2932 1 0.0355661 0.116371 0.265437
12883 2 0.0618009 0.101635 0.304014
6056 1 0.045255 0.156851 0.284144
2386 2 0.0729448 0.147936 0.316925
4963 2 0.0790335 0.137819 0.260139
11144 2 0.112463 0.0896009 0.317796
409 1 0.152231 0.0902481 0.295493
9306 2 0.122129 0.091531 0.264394
12816 1 0.102535 0.123338 0.294371
11497 1 0.129081 0.133418 0.258496
10775 1 0.145051 0.132324 0.298409
12618 2 0.112847 0.163714 0.283386
4890 2 0.172424 0.118539 0.26607
10782 2 0.213457 0.0887696 0.274785
9125 2 0.215779 0.135297 0.267602
12806 1 0.190972 0.109581 0.30532
10177 2 0.229886 0.111095 0.32145
264 2 0.18858 0.153094 0.307019
5702 1 0.0737908 0.178832 0.250452
10137 1 0.0316807 0.193834 0.30751
12486 2 0.0280502 0.189237 0.261105
3278 2 0.0418503 0.234172 0.283865
5449 2 0.0712691 0.192061 0.290364
4004 2 0.0507789 0.226912 0.330802
9561 1 0.0896426 0.234463 0.28736
1569 2 0.158429 0.166419 0.26585
10633 2 0.104719 0.208775 0.254581
8916 1 0.143964 0.170269 0.315185
8776 1 0.146463 0.208247 0.260802
5975 2 0.131089 0.209329 0.299485
10506 1 0.102891 0.180783 0.324912
7980 1 0.125643 0.2443 0.266574
7717 2 0.0956247 0.224003 0.328328
2167 1 0.160113 0.240286 0.286836
9728 1 0.151185 0.233367 0.334096
5720 2 0.200704 0.186506 0.254671
4226 1 0.174518 0.2015 0.288828
3066 1 0.240232 0.17109 0.262236
13209 1 0.209448 0.229605 0.270192
2936 2 0.220689 0.195388 0.297855
4137 2 0.195502 0.236569 0.310731
6295 2 0.244852 0.238249 0.304672
7328 2 0.0188947 0.299163 0.254727
6779 1 0.0297979 0.260936 0.315304
12764 1 0.0540775 0.277969 0.277968
891 2 0.0267924 0.302658 0.303923
12143 1 0.0100092 0.266849 0.282777
2667 2 0.0766934 0.269905 0.317924
9727 1 0.0477001 0.33074 0.268022
8880 2 0.0801955 0.314663 0.295092
586 1 0.116381 0.315623 0.259417
7274 1 0.100855 0.279992 0.278089
6411 2 0.127987 0.261756 0.308374
658 2 0.131542 0.313709 0.304271
5173 2 0.1482 0.280089 0.26349
11279 2 0.223405 0.31357 0.248439
7341 2 0.175302 0.283541 0.30788
13448 2 0.180262 0.315301 0.26813
10744 2 0.202466 0.270976 0.269826
12513 1 0.213443 0.316282 0.297689
9549 1 0.221084 0.27781 0.309613
8273 1 0.247026 0.307738 0.322462
12962 1 0.244407 0.25373 0.258004
8521 1 0.00139537 0.372456 0.30096
4590 1 0.00727853 0.336026 0.278619
10481 1 0.0340585 0.343597 0.309915
9342 2 0.0349001 0.370367 0.269055
5983 1 0.0684491 0.35816 0.298972
8737 2 0.0442367 0.394144 0.32011
12891 1 0.0499701 0.40998 0.280871
11066 2 0.0872686 0.394284 0.277074
4313 2 0.0892266 0.351269 0.255959
6170 2 0.147139 0.347037 0.263117
4694 1 0.12535 0.385805 0.265319
9295 1 0.11106 0.357019 0.295361
3821 2 0.150672 0.380293 0.304711
4164 2 0.0979124 0.387868 0.328851
12518 1 0.1221 0.410218 0.302954
188 1 0.093913 0.337825 0.330193
484 1 0.247717 0.379743 0.308157
3289 1 0.172432 0.382218 0.265909
9653 2 0.175004 0.336853 0.312751
4947 2 0.240452 0.399314 0.271358
11624 2 0.205835 0.359298 0.282827
12613 2 0.200372 0.396666 0.306792
10656 2 0.250065 0.338172 0.290809
2254 2 0.222435 0.350133 0.331093
622 1 0.00430082 0.455982 0.267604
13234 2 0.00885435 0.41698 0.286933
9981 1 0.0197966 0.482488 0.298651
7425 2 0.0455624 0.454787 0.274808
6847 1 0.0349779 0.445242 0.314216
13500 2 0.0544568 0.489115 0.325403
6480 1 0.0570069 0.495441 0.277508
1609 2 0.0203325 0.498446 0.255267
9524 2 0.0836615 0.438025 0.301363
7038 2 0.135455 0.495123 0.254224
829 2 0.159332 0.423348 0.276277
1534 2 0.094301 0.469362 0.265387
1350 1 0.093503 0.482933 0.307313
7278 1 0.114832 0.42555 0.264047
4172 2 0.132324 0.456266 0.29667
9714 2 0.15511 0.426946 0.32793
11068 2 0.173092 0.481283 0.314984
4250 1 0.173083 0.467207 0.27132
10731 1 0.204006 0.423094 0.271715
6879 1 0.189319 0.440674 0.307443
3568 2 0.214671 0.465472 0.283525
1030 2 0.238465 0.431044 0.309736
1260 1 0.215241 0.467893 0.328414
10047 2 0.0621268 0.00126183 0.372536
1226 1 0.0257739 0.0745163 0.334446
6648 1 0.0705283 0.0690838 0.331892
6858 1 0.0342385 0.0275892 0.334374
9039 1 0.0194523 0.00589445 0.373616
7198 1 0.0393785 0.0683116 0.403551
9861 2 0.0504839 0.0505177 0.366473
3758 1 0.067579 0.03476 0.403612
6001 2 0.0279916 0.0259454 0.412144
4297 2 0.0868463 0.0742683 0.40882
13304 2 0.147842 0.0668911 0.340262
7880 2 0.133191 0.0195417 0.357793
11571 2 0.14743 0.0582777 0.38637
9746 2 0.112992 0.0246447 0.399856
4333 2 0.101323 0.0692557 0.364699
1605 1 0.091046 0.0281454 0.361126
5828 1 0.161773 0.0132933 0.392753
13482 1 0.221025 0.0368572 0.358015
3743 1 0.234609 0.0279601 0.399053
619 2 0.195661 0.0504217 0.391797
1655 1 0.178548 0.0363396 0.351846
3853 1 0.240099 0.0657965 0.382142
398 2 0.203925 0.0768891 0.350432
13332 2 0.235888 -0.0019306 0.346451
10311 1 0.0027729 0.122355 0.41402
2758 1 0.0293898 0.155688 0.334058
639 1 0.0633147 0.0911389 0.370802
5948 2 0.0175279 0.0922269 0.372398
11015 1 0.0415643 0.11175 0.340414
11723 1 0.0142348 0.13471 0.37106
5049 2 0.0580228 0.1403 0.372026
2525 2 0.0443521 0.109281 0.406762
5753 2 0.0307148 0.156706 0.411484
6915 1 0.0769249 0.14806 0.414684
6 1 0.0872486 0.115005 0.344251
2191 2 0.161962 0.113184 0.337269
2414 2 0.121304 0.140645 0.338255
1147 1 0.130415 0.102808 0.363015
7638 2 0.0988032 0.120097 0.389507
3774 2 0.139115 0.10112 0.407197
10994 1 0.129505 0.15163 0.383697
9716 1 0.0919713 0.163667 0.363208
886 1 0.16167 0.155452 0.349352
11073 1 0.161797 0.129901 0.379877
9743 1 0.174972 0.0916017 0.379939
11181 1 0.212652 0.094097 0.39335
2392 2 0.231383 0.135748 0.396453
4571 2 0.203485 0.127771 0.357939
11517 1 0.241925 0.10519 0.364937
9007 2 0.189212 0.12009 0.416501
2947 1 0.0088964 0.240016 0.359176
5922 1 0.0231757 0.175229 0.371946
5547 1 0.0122196 0.200268 0.344477
2491 2 0.0572863 0.184401 0.344254
6509 1 0.0632665 0.181373 0.389629
12628 2 0.0388626 0.217897 0.379018
7087 2 0.0785084 0.233884 0.402506
2366 1 0.0700531 0.248732 0.361335
11265 1 0.0243047 0.201318 0.415809
8293 1 0.0875239 0.207769 0.36735
2428 1 0.149131 0.185428 0.39565
13247 2 0.106362 0.182854 0.401303
11164 2 0.130034 0.19398 0.356682
4376 1 0.123642 0.22193 0.395522
5572 1 0.215206 0.167845 0.336981
2851 2 0.177423 0.194565 0.334247
2500 2 0.170396 0.220196 0.379876
6419 2 0.190267 0.167863 0.382381
4938 1 0.231901 0.175265 0.372225
10619 2 0.219441 0.215704 0.35073
5188 2 0.217631 0.205682 0.400987
10099 2 0.0580951 0.314653 0.339307
4540 1 0.038519 0.263828 0.391535
12703 2 0.036567 0.27465 0.351671
7655 1 0.0379593 0.305332 0.384765
4816 1 0.0124388 0.31688 0.349881
11669 2 0.0797602 0.286246 0.37924
2052 2 0.118025 0.250231 0.361709
6510 1 0.151697 0.258763 0.387079
2135 1 0.146327 0.277145 0.342555
9647 1 0.107169 0.297779 0.340788
6267 2 0.128728 0.292776 0.380271
2650 2 0.153365 0.322182 0.350865
9250 1 0.1059 0.31384 0.40954
3343 2 0.152111 0.329327 0.402428
11827 2 0.111176 0.261466 0.416967
11823 1 0.115308 0.330331 0.367481
6318 2 0.244306 0.251268 0.388863
6567 2 0.236984 0.266165 0.346454
11005 1 0.173758 0.295242 0.38107
8544 2 0.19555 0.257964 0.405108
6375 2 0.187067 0.259534 0.353521
4476 2 0.201915 0.305869 0.341899
11379 1 0.216846 0.28922 0.381207
8112 1 0.233391 0.320367 0.406462
10382 2 0.250407 0.309086 0.363982
8672 1 0.194861 0.302893 0.419676
12616 2 0.0771484 0.334215 0.379221
3507 1 0.00813239 0.400006 0.385867
3364 2 0.0144539 0.369032 0.344375
4822 2 0.0282114 0.348237 0.381461
3981 1 0.0597971 0.359008 0.341898
980 2 0.0555626 0.38925 0.371261
10404 2 0.0823991 0.404067 0.411449
9239 1 0.0651012 0.361745 0.413287
101 1 0.132362 0.357439 0.334134
6902 1 0.101804 0.367973 0.363796
4760 1 0.14371 0.362191 0.37557
2910 1 0.135849 0.396807 0.351035
1684 2 0.128671 0.397712 0.395587
8143 2 0.112379 0.356208 0.406712
8623 1 0.0973093 0.407262 0.370897
1456 1 0.171884 0.405746 0.372827
13291 2 0.194726 0.334372 0.38133
6617 1 0.234497 0.348263 0.371774
13238 1 0.23871 0.395243 0.346318
9391 2 0.176362 0.371465 0.346956
12568 2 0.176888 0.373256 0.402173
8942 1 0.209712 0.383265 0.373344
10667 1 0.206116 0.404091 0.408764
10352 1 0.00505846 0.450021 0.384988
523 2 0.0075741 0.490227 0.402189
2691 2 0.0201604 0.426123 0.354193
8883 1 0.0442807 0.426338 0.393597
1682 2 0.0658902 0.432959 0.345189
9919 1 0.0147241 0.470273 0.344718
9370 2 0.0470937 0.470548 0.372045
7795 2 0.0434507 0.461178 0.418181
12248 1 0.083383 0.485719 0.396778
1378 1 0.138024 0.466285 0.339209
3883 1 0.11252 0.433308 0.335376
8379 2 0.0900138 0.444171 0.387643
184 1 0.125372 0.473885 0.38765
3448 2 0.0979571 0.478381 0.351858
10384 2 0.140464 0.436421 0.372913
5564 1 0.153801 0.458557 0.415461
657 2 0.170862 0.484151 0.387449
1005 2 0.233649 0.424968 0.384797
8387 1 0.178275 0.4621 0.352374
13239 1 0.185902 0.440471 0.386288
6601 2 0.202304 0.423778 0.349346
3181 2 0.220237 0.473489 0.376664
6281 2 0.000743926 0.0205312 0.489698
9042 1 0.00250312 0.0540504 0.445275
51 2 0.0515623 0.0573967 0.44192
2138 1 0.0328932 0.0248736 0.458811
849 2 0.0140216 0.0739998 0.480787
9016 1 0.0437832 0.0460434 0.495332
7873 1 0.0746676 0.0327039 0.475067
913 2 0.0700875 0.00302459 0.436528
2561 1 0.0557973 0.0844563 0.473942
4761 1 0.0953706 0.0359865 0.438131
10132 1 0.12914 0.0363261 0.459271
5630 2 0.147052 0.0741023 0.460272
4460 1 0.124636 0.0627677 0.423805
3612 2 0.0974371 0.0690606 0.464415
1835 2 0.161649 0.0341664 0.431171
2723 2 0.162398 0.0360717 0.492517
5927 2 0.108717 0.00466158 0.479369
2977 2 0.235907 5.73199e-05 0.432651
6093 1 0.173423 0.076243 0.4217
7115 1 0.202007 0.0255899 0.427635
6888 1 0.188449 0.0529723 0.458173
5307 2 0.219027 0.0681663 0.427904
2354 1 0.219413 0.0759741 0.47622
11948 2 0.196283 0.00616587 0.472806
8398 2 0.237484 0.0367312 0.465447
3563 1 0.178543 0.0774011 0.49453
1440 1 0.206662 0.0466385 0.500743
6032 2 0.0503764 0.157369 0.497311
2314 2 0.0111932 0.13965 0.454485
1965 1 0.0233101 0.0934766 0.443205
9923 1 0.0351766 0.116827 0.479795
13008 2 0.0684314 0.112183 0.444835
10387 1 0.0605509 0.153967 0.454881
5150 2 0.0732682 0.118234 0.499173
4328 2 0.162028 0.155666 0.421034
8240 2 0.156657 0.120567 0.489302
8816 1 0.117049 0.100955 0.483428
1188 1 0.110782 0.105786 0.439214
148 1 0.119313 0.14338 0.426153
4126 2 0.104948 0.141312 0.468262
1270 1 0.150994 0.116809 0.445915
8532 1 0.143026 0.154518 0.464873
12460 1 0.247373 0.103153 0.487059
2722 1 0.204283 0.115303 0.492072
12388 2 0.188862 0.0976613 0.457152
5414 2 0.223937 0.153701 0.482462
7872 1 0.185212 0.140418 0.461339
7493 2 0.232888 0.118705 0.450404
4712 2 0.210607 0.166381 0.430457
12291 2 0.0252694 0.237229 0.483274
6168 2 0.0273862 0.187967 0.46012
9979 2 0.0631521 0.191329 0.431697
7898 1 0.0617475 0.220865 0.465452
3301 2 0.0382845 0.240629 0.433881
2291 2 0.0843566 0.189335 0.483277
7963 1 0.103914 0.175205 0.446115
8835 2 0.154098 0.234422 0.423389
3170 1 0.111877 0.229192 0.487534
3058 1 0.128783 0.191736 0.480051
207 1 0.141726 0.192448 0.435897
9655 2 0.10907 0.218348 0.443375
4007 2 0.155651 0.227005 0.472891
324 1 0.180682 0.198212 0.421407
3782 2 0.201209 0.234803 0.494194
11105 2 0.174336 0.183765 0.466725
3161 2 0.228864 0.2021 0.460004
11252 1 0.194603 0.223953 0.449675
2625 1 0.227606 0.237494 0.42925
11086 2 0.00683118 0.282772 0.49239
6370 2 0.0626086 0.318688 0.42169
8601 2 0.0189525 0.291247 0.421594
2927 1 0.0666512 0.2744 0.421292
1553 2 0.0433741 0.283244 0.462736
4186 1 0.0635958 0.32493 0.464792
6337 2 0.0158952 0.323499 0.466377
13383 2 0.0806198 0.29879 0.494713
11857 2 0.0831034 0.256408 0.463693
1338 2 0.132964 0.264655 0.461413
3198 2 0.0983574 0.298952 0.448945
7681 2 0.152193 0.287178 0.422784
8548 2 0.13255 0.298558 0.493099
10445 2 0.136992 0.333111 0.449971
590 2 0.242497 0.24959 0.46749
2152 2 0.244843 0.330088 0.494236
10067 1 0.170199 0.27154 0.489658
2618 2 0.172231 0.307065 0.465158
5171 2 0.234398 0.283094 0.428352
9019 2 0.192805 0.267732 0.453386
2209 2 0.215315 0.32085 0.453517
10982 1 0.194822 0.327467 0.498588
8203 2 0.215181 0.285245 0.501357
1786 1 0.0591124 0.34929 0.497576
11933 2 0.0293661 0.386662 0.42025
10653 1 0.0232418 0.339345 0.422923
11977 1 0.0174872 0.399089 0.459551
12507 2 0.0451482 0.362438 0.458987
11999 1 0.0696065 0.393324 0.449111
6405 2 0.0122474 0.366545 0.494426
11636 2 0.049565 0.415195 0.483159
4967 1 0.15052 0.336425 0.496357
7229 2 0.105929 0.339658 0.493878
1465 2 0.0883077 0.383709 0.487926
4008 2 0.114684 0.402937 0.445826
2928 1 0.149667 0.37344 0.437269
12702 2 0.0930194 0.353332 0.449029
4163 1 0.133218 0.371125 0.473957
12440 2 0.162954 0.407776 0.473825
2293 1 0.121087 0.413123 0.487973
12211 2 0.222452 0.358446 0.416848
11121 2 0.240004 0.410907 0.433985
13049 2 0.232449 0.369454 0.466061
11732 1 0.204528 0.397005 0.483735
1891 1 0.192931 0.383955 0.444765
7659 2 0.18042 0.361157 0.479376
1727 1 0.180085 0.341867 0.435881
6019 1 0.00296009 0.466537 0.444785
3723 1 0.0284943 0.49719 0.443638
1151 1 0.00719802 0.488483 0.481594
1060 1 0.0723936 0.492511 0.436645
5425 2 0.0474562 0.464245 0.467594
5517 1 0.0132899 0.43888 0.471517
9882 2 0.00870382 0.42915 0.424824
11738 1 0.0483397 0.426221 0.441092
12762 1 0.0852476 0.449158 0.434527
1855 1 0.11965 0.435605 0.41512
10505 2 0.164772 0.418095 0.422647
2781 1 0.161089 0.467021 0.490216
10679 1 0.091821 0.475151 0.469438
11736 2 0.113636 0.487109 0.429231
2924 2 0.165828 0.490587 0.436883
1158 1 0.0872118 0.431946 0.471779
11875 2 0.129458 0.45028 0.458044
8954 1 0.115707 0.455769 0.49966
7689 2 0.205024 0.452181 0.423592
4606 1 0.204548 0.424387 0.455355
6119 2 0.20343 0.479863 0.464126
1062 2 0.196284 0.440449 0.498135
9980 1 0.237625 0.451338 0.452262
6231 1 0.230285 0.464401 0.494017
7913 1 0.202746 0.496075 0.416137
7859 2 0.241722 0.491931 0.427557
3945 2 0.239025 0.418403 0.487233
1194 1 0.17337 0.449317 0.45351
10987 2 0.0491934 0.0232897 0.561744
7737 1 0.0599361 0.056118 0.537874
13426 2 0.0151677 0.0496449 0.52963
12676 2 0.0324006 0.0698412 0.577201
2464 1 0.0346488 0.0114347 0.520503
5183 1 0.0072481 0.0311279 0.568183
2894 1 0.0743436 0.0545758 0.580735
13210 2 0.0782223 0.018738 0.516569
13277 2 0.085394 0.0732599 0.510736
4382 2 0.108824 0.0457287 0.548526
11493 1 0.145683 0.0303737 0.528538
1422 2 0.137115 0.0759503 0.518063
5506 2 0.151593 0.0540448 0.571274
2424 1 0.137143 0.00972799 0.563856
7833 1 0.115695 0.0418709 0.501481
3014 2 0.178197 0.0140681 0.562625
6797 1 0.217817 0.0419743 0.544798
3285 2 0.236944 0.0183274 0.510041
10335 2 0.180964 0.060467 0.536552
6468 1 0.191207 0.01575 0.52092
1563 1 0.192503 0.0528014 0.580837
2309 1 0.223267 0.0794617 0.56431
4607 2 0.219206 0.0844562 0.519533
10882 1 0.0415151 0.0870377 0.511884
792 1 0.0188048 0.09311 0.545632
4214 2 0.0623462 0.0974471 0.548811
9498 1 0.0329879 0.126282 0.525332
8035 1 0.0661568 0.143518 0.543384